<?xml version="1.0" encoding="UTF-8"?>

<!-- generated on 2026-01-30T22:48:13.163226+07:00 by Eclipse SUMO GUI v1_25_0+0904-59bbc76848e
<sumoConfiguration xmlns:xsi="http://www.w3.org/2001/XMLSchema-instance" xsi:noNamespaceSchemaLocation="http://sumo.dlr.de/xsd/sumoConfiguration.xsd">

    <input>
        <net-file value="TestMap/osm.net.xml.gz"/>
        <route-files value="TestMap/osm_pt.rou.xml,TestMap/osm.bicycle.trips.xml,TestMap/osm.motorcycle.trips.xml,TestMap/osm.passenger.trips.xml,TestMap/osm.pedestrian.rou.xml"/>
        <additional-files value="TestMap/osm.poly.xml.gz,TestMap/osm_stops.add.xml,TestMap/output.add.xml"/>
    </input>

    <output>
        <tripinfo-output value="TestMap/tripinfos.xml"/>
        <stop-output value="TestMap/stopinfos.xml"/>
        <statistic-output value="TestMap/stats.xml"/>
    </output>

    <processing>
        <ignore-route-errors value="true"/>
        <scale value="5.0"/>
        <tls.actuated.jam-threshold value="30"/>
    </processing>

    <routing>
        <device.rerouting.adaptation-steps value="18"/>
        <device.rerouting.adaptation-interval value="10"/>
    </routing>

    <report>
        <verbose value="true"/>
        <no-warnings value="true"/>
        <no-step-log value="true"/>
    </report>

    <emissions>
        <device.emissions.probability value="1.0"/>
    </emissions>

    <traci_server>
        <remote-port value="40093"/>
    </traci_server>

    <gui_only>
        <gui-settings-file value="TestMap/osm.view.xml"/>
        <quit-on-end value="true"/>
        <start value="true"/>
        <delay value="100"/>
    </gui_only>

</sumoConfiguration>
-->

<tripinfos xmlns:xsi="http://www.w3.org/2001/XMLSchema-instance" xsi:noNamespaceSchemaLocation="http://sumo.dlr.de/xsd/tripinfo_file.xsd">
</tripinfos>
