<?xml version="1.0" encoding="UTF-8"?>

<!-- generated on 2026-01-13T15:29:00.198788+07:00 by Eclipse SUMO sumo v1_25_0+0904-59bbc76848e
<sumoConfiguration xmlns:xsi="http://www.w3.org/2001/XMLSchema-instance" xsi:noNamespaceSchemaLocation="http://sumo.dlr.de/xsd/sumoConfiguration.xsd">

    <input>
        <net-file value="/home/hoeman/Sumo/2026-01-13-15-28-54/osm.net.xml.gz"/>
        <route-files value="/home/hoeman/Sumo/2026-01-13-15-28-54/trips.trips.xml"/>
        <additional-files value="/home/hoeman/Sumo/2026-01-13-15-28-54/osm_stops.add.xml"/>
    </input>

    <output>
        <vehroute-output value="/home/hoeman/Sumo/2026-01-13-15-28-54/vehroutes.xml"/>
        <stop-output value="/home/hoeman/Sumo/2026-01-13-15-28-54/stopinfos.xml"/>
    </output>

    <time>
        <begin value="0.0"/>
    </time>

    <processing>
        <ignore-route-errors value="true"/>
        <time-to-teleport.disconnected value="0"/>
    </processing>

    <routing>
        <device.rerouting.adaptation-interval value="0"/>
    </routing>

    <report>
        <aggregate-warnings value="5"/>
        <error-log value="/home/hoeman/Sumo/2026-01-13-15-28-54/trips.trips.xml.errorlog"/>
        <no-step-log value="true"/>
    </report>

</sumoConfiguration>
-->

<routes xmlns:xsi="http://www.w3.org/2001/XMLSchema-instance" xsi:noNamespaceSchemaLocation="http://sumo.dlr.de/xsd/routes_file.xsd">
</routes>
