<?xml version="1.0" encoding="UTF-8"?>

<!-- generated on 2026-02-07T23:55:54.017161+07:00 by Eclipse SUMO sumo 1.25.0
<sumoConfiguration xmlns:xsi="http://www.w3.org/2001/XMLSchema-instance" xsi:noNamespaceSchemaLocation="http://sumo.dlr.de/xsd/sumoConfiguration.xsd">

    <input>
        <net-file value="maps/NinhKieuBridge/osm.net.xml.gz"/>
        <route-files value="maps/NinhKieuBridge/osm_pt.rou.xml,maps/NinhKieuBridge/osm.bicycle.trips.xml,maps/NinhKieuBridge/osm.motorcycle.trips.xml,maps/NinhKieuBridge/osm.passenger.trips.xml,maps/NinhKieuBridge/osm.pedestrian.rou.xml"/>
        <additional-files value="maps/NinhKieuBridge/osm.poly.xml.gz,maps/NinhKieuBridge/osm_stops.add.xml,maps/NinhKieuBridge/output.add.xml"/>
    </input>

    <output>
        <tripinfo-output value="maps/NinhKieuBridge/tripinfos.xml"/>
        <stop-output value="maps/NinhKieuBridge/stopinfos.xml"/>
        <statistic-output value="maps/NinhKieuBridge/stats.xml"/>
    </output>

    <processing>
        <ignore-route-errors value="true"/>
        <scale value="5.0"/>
        <tls.actuated.jam-threshold value="30"/>
    </processing>

    <routing>
        <device.rerouting.adaptation-steps value="18"/>
        <device.rerouting.adaptation-interval value="10"/>
    </routing>

    <report>
        <verbose value="true"/>
        <no-warnings value="true"/>
        <no-step-log value="true"/>
    </report>

    <emissions>
        <device.emissions.probability value="1.0"/>
    </emissions>

    <traci_server>
        <remote-port value="50161"/>
    </traci_server>

    <gui_only>
        <gui-settings-file value="maps/NinhKieuBridge/osm.view.xml"/>
        <quit-on-end value="true"/>
        <start value="true"/>
        <delay value="20"/>
    </gui_only>

</sumoConfiguration>
-->

<tripinfos xmlns:xsi="http://www.w3.org/2001/XMLSchema-instance" xsi:noNamespaceSchemaLocation="http://sumo.dlr.de/xsd/tripinfo_file.xsd">
    <tripinfo id="veh0" depart="0.00" departLane="-166333704#0_0" departPos="5.10" departSpeed="0.00" departDelay="0.00" arrival="49.00" arrivalLane="-1062498629#0_0" arrivalPos="325.06" arrivalSpeed="14.05" duration="49.00" routeLength="621.58" waitingTime="0.00" waitingCount="0" stopTime="0.00" timeLoss="4.54" rerouteNo="1" devices="tripinfo_veh0 routing_veh0 emissions_veh0" vType="veh_passenger" speedFactor="1.02" vaporized="">
        <emissions CO_abs="738.62" CO2_abs="127266.66" HC_abs="4.95" PMx_abs="14.20" NOx_abs="44.04" fuel_abs="41258.14" electricity_abs="0.00"/>
    </tripinfo>
    <tripinfo id="veh0.1" depart="3.00" departLane="-166333704#0_0" departPos="5.10" departSpeed="0.00" departDelay="3.00" arrival="53.00" arrivalLane="-1062498629#0_0" arrivalPos="325.06" arrivalSpeed="12.90" duration="50.00" routeLength="621.58" waitingTime="0.00" waitingCount="0" stopTime="0.00" timeLoss="4.40" rerouteNo="1" devices="tripinfo_veh0.1 routing_veh0.1 emissions_veh0.1" vType="veh_passenger" speedFactor="1.01" vaporized="">
        <emissions CO_abs="681.85" CO2_abs="122390.82" HC_abs="4.57" PMx_abs="14.04" NOx_abs="42.28" fuel_abs="39677.48" electricity_abs="0.00"/>
    </tripinfo>
    <tripinfo id="veh0.2" depart="6.00" departLane="-166333704#0_0" departPos="5.10" departSpeed="0.00" departDelay="6.00" arrival="58.00" arrivalLane="-1062498629#0_0" arrivalPos="325.06" arrivalSpeed="12.91" duration="52.00" routeLength="621.58" waitingTime="0.00" waitingCount="0" stopTime="0.00" timeLoss="4.94" rerouteNo="1" devices="tripinfo_veh0.2 routing_veh0.2 emissions_veh0.2" vType="veh_passenger" speedFactor="0.97" vaporized="">
        <emissions CO_abs="696.91" CO2_abs="122311.08" HC_abs="4.65" PMx_abs="12.36" NOx_abs="41.94" fuel_abs="39651.56" electricity_abs="0.00"/>
    </tripinfo>
    <tripinfo id="veh0.3" depart="9.00" departLane="-166333704#0_0" departPos="5.10" departSpeed="0.00" departDelay="9.00" arrival="65.00" arrivalLane="-1062498629#0_0" arrivalPos="325.06" arrivalSpeed="12.06" duration="56.00" routeLength="621.58" waitingTime="0.00" waitingCount="0" stopTime="0.00" timeLoss="4.81" rerouteNo="1" devices="tripinfo_veh0.3 routing_veh0.3 emissions_veh0.3" vType="veh_passenger" speedFactor="0.89" vaporized="">
        <emissions CO_abs="645.37" CO2_abs="127020.72" HC_abs="4.30" PMx_abs="12.55" NOx_abs="43.07" fuel_abs="41178.39" electricity_abs="0.00"/>
    </tripinfo>
    <tripinfo id="veh0.4" depart="12.00" departLane="-166333704#0_0" departPos="5.10" departSpeed="0.00" departDelay="12.00" arrival="73.00" arrivalLane="-1062498629#0_0" arrivalPos="325.06" arrivalSpeed="11.29" duration="61.00" routeLength="621.58" waitingTime="0.00" waitingCount="0" stopTime="0.00" timeLoss="5.57" rerouteNo="1" devices="tripinfo_veh0.4 routing_veh0.4 emissions_veh0.4" vType="veh_passenger" speedFactor="0.83" vaporized="">
        <emissions CO_abs="477.78" CO2_abs="121231.53" HC_abs="3.19" PMx_abs="12.49" NOx_abs="41.16" fuel_abs="39301.74" electricity_abs="0.00"/>
    </tripinfo>
    <personinfo id="ped1.2" depart="21.00" type="ped_pedestrian" speedFactor="1.18" duration="60.00" waitingTime="1.00" timeLoss="8.62" traveltime="60.00">
        <walk depart="21.00" departPos="0.00" arrival="81.00" arrivalPos="69.66" duration="60.00" routeLength="84.19" timeLoss="8.62" maxSpeed="1.64" waitingTime="1.00"/>
    </personinfo>
    <personinfo id="ped3" depart="61.00" type="ped_pedestrian" speedFactor="1.11" duration="28.00" waitingTime="0.00" timeLoss="2.86" traveltime="28.00">
        <walk depart="61.00" departPos="0.00" arrival="89.00" arrivalPos="19.36" duration="28.00" routeLength="38.90" timeLoss="2.86" maxSpeed="1.55" waitingTime="0.00"/>
    </personinfo>
    <personinfo id="ped1" depart="21.00" type="ped_pedestrian" speedFactor="1.02" duration="68.00" waitingTime="0.00" timeLoss="8.55" traveltime="68.00">
        <walk depart="21.00" departPos="0.00" arrival="89.00" arrivalPos="69.66" duration="68.00" routeLength="84.19" timeLoss="8.55" maxSpeed="1.42" waitingTime="0.00"/>
    </personinfo>
    <personinfo id="ped3.1" depart="61.00" type="ped_pedestrian" speedFactor="1.16" duration="29.00" waitingTime="0.00" timeLoss="4.95" traveltime="29.00">
        <walk depart="61.00" departPos="0.00" arrival="90.00" arrivalPos="19.36" duration="29.00" routeLength="38.90" timeLoss="4.95" maxSpeed="1.62" waitingTime="0.00"/>
    </personinfo>
    <personinfo id="ped1.1" depart="21.00" type="ped_pedestrian" speedFactor="0.97" duration="71.00" waitingTime="0.00" timeLoss="8.71" traveltime="71.00">
        <walk depart="21.00" departPos="0.00" arrival="92.00" arrivalPos="69.66" duration="71.00" routeLength="84.19" timeLoss="8.71" maxSpeed="1.35" waitingTime="0.00"/>
    </personinfo>
    <personinfo id="ped1.3" depart="21.00" type="ped_pedestrian" speedFactor="1.10" duration="72.00" waitingTime="2.00" timeLoss="17.01" traveltime="72.00">
        <walk depart="21.00" departPos="0.00" arrival="93.00" arrivalPos="69.66" duration="72.00" routeLength="84.19" timeLoss="17.01" maxSpeed="1.53" waitingTime="2.00"/>
    </personinfo>
    <personinfo id="ped3.3" depart="61.00" type="ped_pedestrian" speedFactor="1.13" duration="33.00" waitingTime="2.00" timeLoss="8.19" traveltime="33.00">
        <walk depart="61.00" departPos="0.00" arrival="94.00" arrivalPos="19.36" duration="33.00" routeLength="38.90" timeLoss="8.19" maxSpeed="1.57" waitingTime="2.00"/>
    </personinfo>
    <personinfo id="ped3.2" depart="61.00" type="ped_pedestrian" speedFactor="0.94" duration="35.00" waitingTime="1.00" timeLoss="5.09" traveltime="35.00">
        <walk depart="61.00" departPos="0.00" arrival="96.00" arrivalPos="19.36" duration="35.00" routeLength="38.90" timeLoss="5.09" maxSpeed="1.30" waitingTime="1.00"/>
    </personinfo>
    <personinfo id="ped1.4" depart="21.00" type="ped_pedestrian" speedFactor="0.90" duration="79.00" waitingTime="2.00" timeLoss="11.69" traveltime="79.00">
        <walk depart="21.00" departPos="0.00" arrival="100.00" arrivalPos="69.66" duration="79.00" routeLength="84.19" timeLoss="11.69" maxSpeed="1.25" waitingTime="2.00"/>
    </personinfo>
    <personinfo id="ped3.4" depart="61.00" type="ped_pedestrian" speedFactor="0.73" duration="44.00" waitingTime="2.00" timeLoss="5.82" traveltime="44.00">
        <walk depart="61.00" departPos="0.00" arrival="105.00" arrivalPos="19.36" duration="44.00" routeLength="38.90" timeLoss="5.82" maxSpeed="1.02" waitingTime="2.00"/>
    </personinfo>
    <tripinfo id="bike1" depart="29.00" departLane="-43140831#5_0" departPos="1.70" departSpeed="0.00" departDelay="0.90" arrival="117.00" arrivalLane="-43140831#1_0" arrivalPos="107.04" arrivalSpeed="4.33" duration="88.00" routeLength="371.54" waitingTime="0.00" waitingCount="0" stopTime="0.00" timeLoss="6.87" rerouteNo="1" devices="tripinfo_bike1 routing_bike1 emissions_bike1" vType="bike_bicycle" speedFactor="0.83" vaporized="">
        <emissions CO_abs="0.00" CO2_abs="0.00" HC_abs="0.00" PMx_abs="0.00" NOx_abs="0.00" fuel_abs="0.00" electricity_abs="0.00"/>
    </tripinfo>
    <tripinfo id="bike1.1" depart="31.00" departLane="-43140831#5_0" departPos="1.70" departSpeed="0.00" departDelay="2.90" arrival="118.00" arrivalLane="-43140831#1_0" arrivalPos="107.04" arrivalSpeed="5.37" duration="87.00" routeLength="371.54" waitingTime="0.00" waitingCount="0" stopTime="0.00" timeLoss="22.86" rerouteNo="1" devices="tripinfo_bike1.1 routing_bike1.1 emissions_bike1.1" vType="bike_bicycle" speedFactor="1.05" vaporized="">
        <emissions CO_abs="0.00" CO2_abs="0.00" HC_abs="0.00" PMx_abs="0.00" NOx_abs="0.00" fuel_abs="0.00" electricity_abs="0.00"/>
    </tripinfo>
    <tripinfo id="bike1.2" depart="34.00" departLane="-43140831#5_0" departPos="1.70" departSpeed="0.00" departDelay="5.90" arrival="120.00" arrivalLane="-43140831#1_0" arrivalPos="107.04" arrivalSpeed="4.60" duration="86.00" routeLength="371.54" waitingTime="0.00" waitingCount="0" stopTime="0.00" timeLoss="10.07" rerouteNo="1" devices="tripinfo_bike1.2 routing_bike1.2 emissions_bike1.2" vType="bike_bicycle" speedFactor="0.89" vaporized="">
        <emissions CO_abs="0.00" CO2_abs="0.00" HC_abs="0.00" PMx_abs="0.00" NOx_abs="0.00" fuel_abs="0.00" electricity_abs="0.00"/>
    </tripinfo>
    <tripinfo id="bike1.3" depart="36.00" departLane="-43140831#5_0" departPos="1.70" departSpeed="0.00" departDelay="7.90" arrival="121.00" arrivalLane="-43140831#1_0" arrivalPos="107.04" arrivalSpeed="4.97" duration="85.00" routeLength="371.54" waitingTime="0.00" waitingCount="0" stopTime="0.00" timeLoss="13.71" rerouteNo="1" devices="tripinfo_bike1.3 routing_bike1.3 emissions_bike1.3" vType="bike_bicycle" speedFactor="0.94" vaporized="">
        <emissions CO_abs="0.00" CO2_abs="0.00" HC_abs="0.00" PMx_abs="0.00" NOx_abs="0.00" fuel_abs="0.00" electricity_abs="0.00"/>
    </tripinfo>
    <tripinfo id="bike1.4" depart="39.00" departLane="-43140831#5_0" departPos="1.70" departSpeed="0.00" departDelay="10.90" arrival="125.00" arrivalLane="-43140831#1_0" arrivalPos="107.04" arrivalSpeed="4.41" duration="86.00" routeLength="371.54" waitingTime="0.00" waitingCount="0" stopTime="0.00" timeLoss="7.65" rerouteNo="1" devices="tripinfo_bike1.4 routing_bike1.4 emissions_bike1.4" vType="bike_bicycle" speedFactor="0.86" vaporized="">
        <emissions CO_abs="0.00" CO2_abs="0.00" HC_abs="0.00" PMx_abs="0.00" NOx_abs="0.00" fuel_abs="0.00" electricity_abs="0.00"/>
    </tripinfo>
    <personinfo id="ped2.1" depart="41.00" type="ped_pedestrian" speedFactor="1.12" duration="85.00" waitingTime="0.00" timeLoss="9.25" traveltime="85.00">
        <walk depart="41.00" departPos="0.00" arrival="126.00" arrivalPos="13.63" duration="85.00" routeLength="117.78" timeLoss="9.25" maxSpeed="1.55" waitingTime="0.00"/>
    </personinfo>
    <tripinfo id="bike0" depart="0.00" departLane="1193997329_0" departPos="1.70" departSpeed="0.00" departDelay="0.00" arrival="126.00" arrivalLane="-1062498629#2_0" arrivalPos="232.59" arrivalSpeed="5.47" duration="126.00" routeLength="681.44" waitingTime="0.00" waitingCount="0" stopTime="0.00" timeLoss="9.63" rerouteNo="1" devices="tripinfo_bike0 routing_bike0 emissions_bike0" vType="bike_bicycle" speedFactor="1.06" vaporized="">
        <emissions CO_abs="0.00" CO2_abs="0.00" HC_abs="0.00" PMx_abs="0.00" NOx_abs="0.00" fuel_abs="0.00" electricity_abs="0.00"/>
    </tripinfo>
    <personinfo id="ped2" depart="41.00" type="ped_pedestrian" speedFactor="1.01" duration="94.00" waitingTime="0.00" timeLoss="10.18" traveltime="94.00">
        <walk depart="41.00" departPos="0.00" arrival="135.00" arrivalPos="13.63" duration="94.00" routeLength="117.78" timeLoss="10.18" maxSpeed="1.41" waitingTime="0.00"/>
    </personinfo>
    <personinfo id="ped2.2" depart="41.00" type="ped_pedestrian" speedFactor="1.02" duration="95.00" waitingTime="0.00" timeLoss="11.47" traveltime="95.00">
        <walk depart="41.00" departPos="0.00" arrival="136.00" arrivalPos="13.63" duration="95.00" routeLength="117.78" timeLoss="11.47" maxSpeed="1.41" waitingTime="0.00"/>
    </personinfo>
    <personinfo id="ped2.3" depart="41.00" type="ped_pedestrian" speedFactor="1.00" duration="96.00" waitingTime="1.00" timeLoss="11.53" traveltime="96.00">
        <walk depart="41.00" departPos="0.00" arrival="137.00" arrivalPos="13.63" duration="96.00" routeLength="117.78" timeLoss="11.53" maxSpeed="1.39" waitingTime="1.00"/>
    </personinfo>
    <personinfo id="ped2.4" depart="41.00" type="ped_pedestrian" speedFactor="0.95" duration="101.00" waitingTime="1.00" timeLoss="12.06" traveltime="101.00">
        <walk depart="41.00" departPos="0.00" arrival="142.00" arrivalPos="13.63" duration="101.00" routeLength="117.78" timeLoss="12.06" maxSpeed="1.32" waitingTime="1.00"/>
    </personinfo>
    <tripinfo id="bike0.1" depart="3.00" departLane="1193997329_0" departPos="1.70" departSpeed="0.00" departDelay="3.00" arrival="146.00" arrivalLane="-1062498629#2_0" arrivalPos="232.59" arrivalSpeed="4.87" duration="143.00" routeLength="681.44" waitingTime="0.00" waitingCount="0" stopTime="0.00" timeLoss="11.41" rerouteNo="1" devices="tripinfo_bike0.1 routing_bike0.1 emissions_bike0.1" vType="bike_bicycle" speedFactor="0.94" vaporized="">
        <emissions CO_abs="0.00" CO2_abs="0.00" HC_abs="0.00" PMx_abs="0.00" NOx_abs="0.00" fuel_abs="0.00" electricity_abs="0.00"/>
    </tripinfo>
    <tripinfo id="veh4" depart="93.00" departLane="1284876490#0_0" departPos="5.10" departSpeed="0.00" departDelay="0.60" arrival="146.00" arrivalLane="952670885#2_0" arrivalPos="56.90" arrivalSpeed="14.77" duration="53.00" routeLength="600.78" waitingTime="0.00" waitingCount="0" stopTime="0.00" timeLoss="10.93" rerouteNo="1" devices="tripinfo_veh4 routing_veh4 emissions_veh4" vType="veh_passenger" speedFactor="1.06" vaporized="">
        <emissions CO_abs="1245.20" CO2_abs="187601.21" HC_abs="8.26" PMx_abs="14.61" NOx_abs="63.21" fuel_abs="60817.42" electricity_abs="0.00"/>
    </tripinfo>
    <tripinfo id="bike0.2" depart="5.00" departLane="1193997329_0" departPos="1.70" departSpeed="0.00" departDelay="5.00" arrival="147.00" arrivalLane="-1062498629#2_0" arrivalPos="232.59" arrivalSpeed="5.49" duration="142.00" routeLength="681.44" waitingTime="0.00" waitingCount="0" stopTime="0.00" timeLoss="20.21" rerouteNo="1" devices="tripinfo_bike0.2 routing_bike0.2 emissions_bike0.2" vType="bike_bicycle" speedFactor="1.01" vaporized="">
        <emissions CO_abs="0.00" CO2_abs="0.00" HC_abs="0.00" PMx_abs="0.00" NOx_abs="0.00" fuel_abs="0.00" electricity_abs="0.00"/>
    </tripinfo>
    <tripinfo id="bike0.3" depart="8.00" departLane="1193997329_0" departPos="1.70" departSpeed="0.00" departDelay="8.00" arrival="149.00" arrivalLane="-1062498629#2_0" arrivalPos="232.59" arrivalSpeed="5.57" duration="141.00" routeLength="681.44" waitingTime="0.00" waitingCount="0" stopTime="0.00" timeLoss="26.97" rerouteNo="1" devices="tripinfo_bike0.3 routing_bike0.3 emissions_bike0.3" vType="bike_bicycle" speedFactor="1.08" vaporized="">
        <emissions CO_abs="0.00" CO2_abs="0.00" HC_abs="0.00" PMx_abs="0.00" NOx_abs="0.00" fuel_abs="0.00" electricity_abs="0.00"/>
    </tripinfo>
    <tripinfo id="bike0.4" depart="10.00" departLane="1193997329_0" departPos="1.70" departSpeed="0.00" departDelay="10.00" arrival="150.00" arrivalLane="-1062498629#2_0" arrivalPos="232.59" arrivalSpeed="5.64" duration="140.00" routeLength="681.44" waitingTime="0.00" waitingCount="0" stopTime="0.00" timeLoss="20.58" rerouteNo="1" devices="tripinfo_bike0.4 routing_bike0.4 emissions_bike0.4" vType="bike_bicycle" speedFactor="1.03" vaporized="">
        <emissions CO_abs="0.00" CO2_abs="0.00" HC_abs="0.00" PMx_abs="0.00" NOx_abs="0.00" fuel_abs="0.00" electricity_abs="0.00"/>
    </tripinfo>
    <tripinfo id="veh4.1" depart="96.00" departLane="1284876490#0_0" departPos="5.10" departSpeed="0.00" departDelay="3.60" arrival="153.00" arrivalLane="952670885#2_0" arrivalPos="56.90" arrivalSpeed="12.58" duration="57.00" routeLength="600.78" waitingTime="0.00" waitingCount="0" stopTime="0.00" timeLoss="10.10" rerouteNo="1" devices="tripinfo_veh4.1 routing_veh4.1 emissions_veh4.1" vType="veh_passenger" speedFactor="0.96" vaporized="">
        <emissions CO_abs="981.90" CO2_abs="176125.46" HC_abs="6.52" PMx_abs="14.75" NOx_abs="58.75" fuel_abs="57097.29" electricity_abs="0.00"/>
    </tripinfo>
    <tripinfo id="veh4.2" depart="99.00" departLane="1284876490#0_0" departPos="5.10" departSpeed="0.00" departDelay="6.60" arrival="156.00" arrivalLane="952670885#2_0" arrivalPos="56.90" arrivalSpeed="13.27" duration="57.00" routeLength="600.78" waitingTime="0.00" waitingCount="0" stopTime="0.00" timeLoss="10.09" rerouteNo="1" devices="tripinfo_veh4.2 routing_veh4.2 emissions_veh4.2" vType="veh_passenger" speedFactor="0.97" vaporized="">
        <emissions CO_abs="1026.45" CO2_abs="175608.05" HC_abs="6.81" PMx_abs="14.11" NOx_abs="58.45" fuel_abs="56929.50" electricity_abs="0.00"/>
    </tripinfo>
    <tripinfo id="veh4.3" depart="102.00" departLane="1284876490#0_0" departPos="5.10" departSpeed="0.00" departDelay="9.60" arrival="160.00" arrivalLane="952670885#2_0" arrivalPos="56.90" arrivalSpeed="13.06" duration="58.00" routeLength="600.78" waitingTime="0.00" waitingCount="0" stopTime="0.00" timeLoss="9.97" rerouteNo="1" devices="tripinfo_veh4.3 routing_veh4.3 emissions_veh4.3" vType="veh_passenger" speedFactor="0.95" vaporized="">
        <emissions CO_abs="1011.15" CO2_abs="173869.44" HC_abs="6.70" PMx_abs="13.24" NOx_abs="57.75" fuel_abs="56365.84" electricity_abs="0.00"/>
    </tripinfo>
    <tripinfo id="veh4.4" depart="105.00" departLane="1284876490#0_0" departPos="5.10" departSpeed="0.00" departDelay="12.60" arrival="165.00" arrivalLane="952670885#2_0" arrivalPos="56.90" arrivalSpeed="11.63" duration="60.00" routeLength="600.78" waitingTime="0.00" waitingCount="0" stopTime="0.00" timeLoss="9.81" rerouteNo="1" devices="tripinfo_veh4.4 routing_veh4.4 emissions_veh4.4" vType="veh_passenger" speedFactor="0.89" vaporized="">
        <emissions CO_abs="817.98" CO2_abs="161009.05" HC_abs="5.43" PMx_abs="13.27" NOx_abs="53.03" fuel_abs="52196.78" electricity_abs="0.00"/>
    </tripinfo>
    <tripinfo id="motorcycle1" depart="70.00" departLane="-952052138#0_0" departPos="0.37" departSpeed="0.00" departDelay="0.70" arrival="178.00" arrivalLane="1062498629#1_0" arrivalPos="7.82" arrivalSpeed="5.63" duration="108.00" routeLength="725.68" waitingTime="0.00" waitingCount="0" stopTime="0.00" timeLoss="47.92" rerouteNo="1" devices="tripinfo_motorcycle1 routing_motorcycle1 emissions_motorcycle1" vType="motorcycle_motorcycle" speedFactor="0.93" vaporized="">
        <emissions CO_abs="2246.53" CO2_abs="145329.00" HC_abs="1631.30" PMx_abs="34.33" NOx_abs="154.12" fuel_abs="47123.60" electricity_abs="0.00"/>
    </tripinfo>
    <tripinfo id="motorcycle1.1" depart="71.00" departLane="-952052138#0_0" departPos="0.37" departSpeed="0.00" departDelay="1.70" arrival="184.00" arrivalLane="1062498629#1_0" arrivalPos="7.82" arrivalSpeed="9.57" duration="113.00" routeLength="725.68" waitingTime="0.00" waitingCount="0" stopTime="0.00" timeLoss="49.99" rerouteNo="1" devices="tripinfo_motorcycle1.1 routing_motorcycle1.1 emissions_motorcycle1.1" vType="motorcycle_motorcycle" speedFactor="0.88" vaporized="">
        <emissions CO_abs="2346.91" CO2_abs="165104.60" HC_abs="1851.51" PMx_abs="38.85" NOx_abs="172.76" fuel_abs="53535.89" electricity_abs="0.00"/>
    </tripinfo>
    <tripinfo id="motorcycle1.2" depart="73.00" departLane="-952052138#0_0" departPos="0.37" departSpeed="0.00" departDelay="3.70" arrival="187.00" arrivalLane="1062498629#1_0" arrivalPos="7.82" arrivalSpeed="9.09" duration="114.00" routeLength="725.68" waitingTime="0.00" waitingCount="0" stopTime="0.00" timeLoss="54.61" rerouteNo="1" devices="tripinfo_motorcycle1.2 routing_motorcycle1.2 emissions_motorcycle1.2" vType="motorcycle_motorcycle" speedFactor="0.94" vaporized="">
        <emissions CO_abs="2555.10" CO2_abs="176979.25" HC_abs="1948.28" PMx_abs="40.67" NOx_abs="187.48" fuel_abs="57386.14" electricity_abs="0.00"/>
    </tripinfo>
    <tripinfo id="motorcycle1.3" depart="75.00" departLane="-952052138#0_0" departPos="0.37" departSpeed="0.00" departDelay="5.70" arrival="192.00" arrivalLane="1062498629#1_0" arrivalPos="7.82" arrivalSpeed="12.04" duration="117.00" routeLength="725.68" waitingTime="0.00" waitingCount="0" stopTime="0.00" timeLoss="58.03" rerouteNo="1" devices="tripinfo_motorcycle1.3 routing_motorcycle1.3 emissions_motorcycle1.3" vType="motorcycle_motorcycle" speedFactor="0.94" vaporized="">
        <emissions CO_abs="3150.03" CO2_abs="204919.21" HC_abs="2146.76" PMx_abs="44.46" NOx_abs="229.70" fuel_abs="66445.42" electricity_abs="0.00"/>
    </tripinfo>
    <tripinfo id="motorcycle1.4" depart="77.00" departLane="-952052138#0_0" departPos="0.37" departSpeed="0.00" departDelay="7.70" arrival="194.00" arrivalLane="1062498629#1_0" arrivalPos="7.82" arrivalSpeed="8.04" duration="117.00" routeLength="725.68" waitingTime="2.00" waitingCount="1" stopTime="0.00" timeLoss="69.93" rerouteNo="1" devices="tripinfo_motorcycle1.4 routing_motorcycle1.4 emissions_motorcycle1.4" vType="motorcycle_motorcycle" speedFactor="1.16" vaporized="">
        <emissions CO_abs="3595.51" CO2_abs="214926.32" HC_abs="2264.34" PMx_abs="46.35" NOx_abs="247.28" fuel_abs="69690.19" electricity_abs="0.00"/>
    </tripinfo>
    <tripinfo id="motorcycle0" depart="0.00" departLane="-1150062812#1_0" departPos="2.30" departSpeed="3.03" departDelay="0.00" arrival="204.00" arrivalLane="-952670885#0_0" arrivalPos="0.20" arrivalSpeed="14.01" duration="204.00" routeLength="1221.95" waitingTime="0.00" waitingCount="0" stopTime="0.00" timeLoss="43.80" rerouteNo="1" devices="tripinfo_motorcycle0 routing_motorcycle0 emissions_motorcycle0" vType="motorcycle_motorcycle" speedFactor="1.09" vaporized="">
        <emissions CO_abs="5516.28" CO2_abs="254318.27" HC_abs="3107.30" PMx_abs="63.86" NOx_abs="284.15" fuel_abs="82464.34" electricity_abs="0.00"/>
    </tripinfo>
    <tripinfo id="motorcycle3" depart="208.00" departLane="1062498629#1_0" departPos="2.30" departSpeed="0.00" departDelay="0.10" arrival="210.00" arrivalLane="1062498629#1_0" arrivalPos="7.82" arrivalSpeed="9.76" duration="2.00" routeLength="5.52" waitingTime="0.00" waitingCount="0" stopTime="0.00" timeLoss="0.99" rerouteNo="1" devices="tripinfo_motorcycle3 routing_motorcycle3 emissions_motorcycle3" vType="motorcycle_motorcycle" speedFactor="1.03" vaporized="">
        <emissions CO_abs="163.35" CO2_abs="10740.06" HC_abs="88.70" PMx_abs="1.87" NOx_abs="12.85" fuel_abs="3482.42" electricity_abs="0.00"/>
    </tripinfo>
    <tripinfo id="motorcycle3.1" depart="210.00" departLane="1062498629#1_0" departPos="2.30" departSpeed="0.00" departDelay="2.10" arrival="211.00" arrivalLane="1062498629#1_0" arrivalPos="7.82" arrivalSpeed="5.91" duration="1.00" routeLength="5.52" waitingTime="0.00" waitingCount="0" stopTime="0.00" timeLoss="0.57" rerouteNo="1" devices="tripinfo_motorcycle3.1 routing_motorcycle3.1 emissions_motorcycle3.1" vType="motorcycle_motorcycle" speedFactor="1.00" vaporized="">
        <emissions CO_abs="53.46" CO2_abs="6020.03" HC_abs="43.74" PMx_abs="1.02" NOx_abs="5.92" fuel_abs="1951.97" electricity_abs="0.00"/>
    </tripinfo>
    <tripinfo id="veh2" depart="69.00" departLane="-1150062813_0" departPos="5.10" departSpeed="0.00" departDelay="22.80" arrival="219.00" arrivalLane="1062498629#3_0" arrivalPos="3.00" arrivalSpeed="13.06" duration="150.00" routeLength="872.46" waitingTime="0.00" waitingCount="0" stopTime="0.00" timeLoss="34.52" rerouteNo="1" devices="tripinfo_veh2 routing_veh2 emissions_veh2" vType="veh_passenger" speedFactor="1.02" vaporized="">
        <emissions CO_abs="1093.49" CO2_abs="288834.38" HC_abs="7.27" PMx_abs="19.26" NOx_abs="97.03" fuel_abs="93635.96" electricity_abs="0.00"/>
    </tripinfo>
    <tripinfo id="motorcycle3.2" depart="219.00" departLane="1062498629#1_0" departPos="2.30" departSpeed="0.00" departDelay="11.10" arrival="221.00" arrivalLane="1062498629#1_0" arrivalPos="7.82" arrivalSpeed="6.38" duration="2.00" routeLength="5.52" waitingTime="0.00" waitingCount="0" stopTime="0.00" timeLoss="1.34" rerouteNo="1" devices="tripinfo_motorcycle3.2 routing_motorcycle3.2 emissions_motorcycle3.2" vType="motorcycle_motorcycle" speedFactor="1.02" vaporized="">
        <emissions CO_abs="45.94" CO2_abs="7787.56" HC_abs="65.22" PMx_abs="1.56" NOx_abs="5.94" fuel_abs="2525.12" electricity_abs="0.00"/>
    </tripinfo>
    <tripinfo id="motorcycle3.3" depart="222.00" departLane="1062498629#1_0" departPos="2.30" departSpeed="0.00" departDelay="14.10" arrival="224.00" arrivalLane="1062498629#1_0" arrivalPos="7.82" arrivalSpeed="8.24" duration="2.00" routeLength="5.52" waitingTime="0.00" waitingCount="0" stopTime="0.00" timeLoss="1.01" rerouteNo="1" devices="tripinfo_motorcycle3.3 routing_motorcycle3.3 emissions_motorcycle3.3" vType="motorcycle_motorcycle" speedFactor="0.97" vaporized="">
        <emissions CO_abs="98.54" CO2_abs="9393.21" HC_abs="77.56" PMx_abs="1.74" NOx_abs="9.54" fuel_abs="3045.73" electricity_abs="0.00"/>
    </tripinfo>
    <personinfo id="ped0" depart="0.00" type="ped_pedestrian" speedFactor="1.18" duration="225.00" waitingTime="0.00" timeLoss="22.01" traveltime="225.00">
        <walk depart="0.00" departPos="0.00" arrival="225.00" arrivalPos="1.65" duration="225.00" routeLength="332.28" timeLoss="22.01" maxSpeed="1.64" waitingTime="0.00"/>
    </personinfo>
    <tripinfo id="motorcycle0.2" depart="7.00" departLane="-1150062812#1_0" departPos="2.30" departSpeed="2.50" departDelay="7.00" arrival="225.00" arrivalLane="-952670885#0_0" arrivalPos="0.20" arrivalSpeed="12.03" duration="218.00" routeLength="1221.95" waitingTime="0.00" waitingCount="0" stopTime="0.00" timeLoss="51.58" rerouteNo="1" devices="tripinfo_motorcycle0.2 routing_motorcycle0.2 emissions_motorcycle0.2" vType="motorcycle_motorcycle" speedFactor="1.05" vaporized="">
        <emissions CO_abs="5013.52" CO2_abs="261673.36" HC_abs="3232.99" PMx_abs="66.80" NOx_abs="275.12" fuel_abs="84849.42" electricity_abs="0.00"/>
    </tripinfo>
    <tripinfo id="motorcycle3.4" depart="224.00" departLane="1062498629#1_0" departPos="2.30" departSpeed="0.00" departDelay="16.10" arrival="226.00" arrivalLane="1062498629#1_0" arrivalPos="7.82" arrivalSpeed="8.04" duration="2.00" routeLength="5.52" waitingTime="0.00" waitingCount="0" stopTime="0.00" timeLoss="1.19" rerouteNo="1" devices="tripinfo_motorcycle3.4 routing_motorcycle3.4 emissions_motorcycle3.4" vType="motorcycle_motorcycle" speedFactor="1.15" vaporized="">
        <emissions CO_abs="91.65" CO2_abs="9217.18" HC_abs="76.17" PMx_abs="1.72" NOx_abs="9.13" fuel_abs="2988.66" electricity_abs="0.00"/>
    </tripinfo>
    <tripinfo id="motorcycle0.1" depart="3.00" departLane="-1150062812#1_0" departPos="2.30" departSpeed="1.20" departDelay="3.00" arrival="228.00" arrivalLane="-952670885#0_0" arrivalPos="0.20" arrivalSpeed="12.30" duration="225.00" routeLength="1221.95" waitingTime="0.00" waitingCount="0" stopTime="0.00" timeLoss="55.24" rerouteNo="1" devices="tripinfo_motorcycle0.1 routing_motorcycle0.1 emissions_motorcycle0.1" vType="motorcycle_motorcycle" speedFactor="1.03" vaporized="">
        <emissions CO_abs="5172.23" CO2_abs="286188.28" HC_abs="3518.23" PMx_abs="72.32" NOx_abs="303.15" fuel_abs="92798.43" electricity_abs="0.00"/>
    </tripinfo>
    <tripinfo id="motorcycle0.3" depart="10.00" departLane="-1150062812#1_0" departPos="2.30" departSpeed="0.98" departDelay="10.00" arrival="230.00" arrivalLane="-952670885#0_0" arrivalPos="0.20" arrivalSpeed="13.34" duration="220.00" routeLength="1221.95" waitingTime="0.00" waitingCount="0" stopTime="0.00" timeLoss="64.40" rerouteNo="1" devices="tripinfo_motorcycle0.3 routing_motorcycle0.3 emissions_motorcycle0.3" vType="motorcycle_motorcycle" speedFactor="1.12" vaporized="">
        <emissions CO_abs="5463.73" CO2_abs="269616.61" HC_abs="3175.69" PMx_abs="65.52" NOx_abs="293.98" fuel_abs="87424.59" electricity_abs="0.00"/>
    </tripinfo>
    <personinfo id="ped0.1" depart="0.00" type="ped_pedestrian" speedFactor="1.15" duration="233.00" waitingTime="0.00" timeLoss="25.75" traveltime="233.00">
        <walk depart="0.00" departPos="0.00" arrival="233.00" arrivalPos="1.65" duration="233.00" routeLength="332.28" timeLoss="25.75" maxSpeed="1.60" waitingTime="0.00"/>
    </personinfo>