<?xml version="1.0" encoding="UTF-8"?>

<!-- generated on 2026-02-07T23:55:45.766622+07:00 by Eclipse SUMO sumo 1.25.0
<sumoConfiguration xmlns:xsi="http://www.w3.org/2001/XMLSchema-instance" xsi:noNamespaceSchemaLocation="http://sumo.dlr.de/xsd/sumoConfiguration.xsd">

    <input>
        <net-file value="maps/CTU_map/osm.net.xml.gz"/>
        <route-files value="maps/CTU_map/osm.bicycle.trips.xml,maps/CTU_map/osm.motorcycle.trips.xml,maps/CTU_map/osm.passenger.trips.xml,maps/CTU_map/osm.pedestrian.rou.xml"/>
        <additional-files value="maps/CTU_map/osm.poly.xml.gz,maps/CTU_map/output.add.xml"/>
    </input>

    <output>
        <tripinfo-output value="maps/CTU_map/tripinfos.xml"/>
        <statistic-output value="maps/CTU_map/stats.xml"/>
    </output>

    <processing>
        <ignore-route-errors value="true"/>
        <scale value="5.0"/>
        <tls.actuated.jam-threshold value="30"/>
    </processing>

    <routing>
        <device.rerouting.adaptation-steps value="18"/>
        <device.rerouting.adaptation-interval value="10"/>
    </routing>

    <report>
        <verbose value="true"/>
        <no-warnings value="true"/>
        <no-step-log value="true"/>
    </report>

    <emissions>
        <device.emissions.probability value="1.0"/>
    </emissions>

    <traci_server>
        <remote-port value="41671"/>
    </traci_server>

    <gui_only>
        <gui-settings-file value="maps/CTU_map/osm.view.xml"/>
        <quit-on-end value="true"/>
        <start value="true"/>
        <delay value="20"/>
    </gui_only>

</sumoConfiguration>
-->

<meandata xmlns:xsi="http://www.w3.org/2001/XMLSchema-instance" xsi:noNamespaceSchemaLocation="http://sumo.dlr.de/xsd/meandata_file.xsd">
    <interval begin="0.00" end="356.00" id="wizard_example">
        <edge id="-1006436797#0" sampledSeconds="49.99" traveltime="10.14" overlapTraveltime="10.44" density="3.51" overlapDensity="3.62" laneDensity="3.51" occupancy="0.57" waitingTime="0.00" timeLoss="16.14" speed="3.87" speedRelative="0.70" departed="5" arrived="0" entered="0" left="5" laneChangedFrom="0" laneChangedTo="0" flow="48.93"/>
        <edge id="-1006436797#1" sampledSeconds="0.00" departed="0" arrived="0" entered="0" left="0" laneChangedFrom="0" laneChangedTo="0"/>
        <edge id="-1006436797#2" sampledSeconds="10.57" traveltime="2.32" overlapTraveltime="2.64" density="2.27" overlapDensity="2.59" laneDensity="2.27" occupancy="0.37" waitingTime="0.00" timeLoss="1.41" speed="4.95" speedRelative="0.89" departed="0" arrived="0" entered="4" left="4" laneChangedFrom="0" laneChangedTo="0" flow="40.48"/>
        <edge id="-1006436797#3" sampledSeconds="15.99" traveltime="3.70" overlapTraveltime="4.00" density="2.10" overlapDensity="2.27" laneDensity="2.10" occupancy="0.34" waitingTime="0.00" timeLoss="0.98" speed="5.36" speedRelative="0.96" departed="0" arrived="0" entered="4" left="4" laneChangedFrom="0" laneChangedTo="0" flow="40.44"/>
        <edge id="-1006436797#4" sampledSeconds="8.94" overlapTraveltime="2.67" density="0.00" overlapDensity="31.79" laneDensity="0.00" occupancy="2.17" waitingTime="1.00" timeLoss="7.28" speed="0.89" speedRelative="0.16" departed="5" arrived="0" entered="0" left="5" laneChangedFrom="0" laneChangedTo="0" flow="0.00"/>
        <edge id="-1006436798" sampledSeconds="79.14" traveltime="15.11" overlapTraveltime="15.83" density="4.30" overlapDensity="4.50" laneDensity="4.30" occupancy="0.70" waitingTime="8.00" timeLoss="34.33" speed="3.22" speedRelative="0.58" departed="0" arrived="0" entered="5" left="5" laneChangedFrom="0" laneChangedTo="0" flow="49.83"/>
        <edge id="-1006436799#0" sampledSeconds="0.00" departed="0" arrived="0" entered="0" left="0" laneChangedFrom="0" laneChangedTo="0"/>
        <edge id="-1006436799#1" sampledSeconds="1.49" traveltime="0.07" overlapTraveltime="0.37" density="2.11" overlapDensity="10.74" laneDensity="2.11" occupancy="0.34" waitingTime="0.00" timeLoss="0.10" speed="5.34" speedRelative="0.96" departed="0" arrived="0" entered="4" left="4" laneChangedFrom="0" laneChangedTo="0" flow="40.45"/>
        <edge id="-1006436802#0" sampledSeconds="5.49" traveltime="1.07" overlapTraveltime="1.37" density="2.05" overlapDensity="2.63" laneDensity="2.05" occupancy="0.33" waitingTime="0.00" timeLoss="0.26" speed="5.44" speedRelative="0.98" departed="0" arrived="4" entered="4" left="0" laneChangedFrom="0" laneChangedTo="0" flow="40.20"/>
        <edge id="-1006436802#1" sampledSeconds="0.00" departed="0" arrived="0" entered="0" left="0" laneChangedFrom="0" laneChangedTo="0"/>
        <edge id="-1006436820" sampledSeconds="0.00" departed="0" arrived="0" entered="0" left="0" laneChangedFrom="0" laneChangedTo="0"/>
        <edge id="-1049200866" sampledSeconds="351.01" traveltime="14.51" overlapTraveltime="15.25" density="25.04" overlapDensity="26.22" laneDensity="25.04" occupancy="8.01" waitingTime="154.00" timeLoss="271.91" speed="2.67" speedRelative="0.19" departed="25" arrived="0" entered="0" left="25" laneChangedFrom="0" laneChangedTo="0" flow="240.76"/>
        <edge id="-1050341200" sampledSeconds="0.00" departed="0" arrived="0" entered="0" left="0" laneChangedFrom="0" laneChangedTo="0"/>
        <edge id="-1060989491" sampledSeconds="0.00" departed="0" arrived="0" entered="0" left="0" laneChangedFrom="0" laneChangedTo="0"/>
        <edge id="-1060989493#0" sampledSeconds="123.35" traveltime="7.83" overlapTraveltime="8.22" density="8.87" overlapDensity="9.31" laneDensity="8.87" occupancy="1.42" waitingTime="0.00" timeLoss="19.08" speed="4.72" speedRelative="0.85" departed="0" arrived="0" entered="15" left="15" laneChangedFrom="0" laneChangedTo="0" flow="150.62"/>
        <edge id="-1060989493#1" sampledSeconds="119.89" traveltime="7.67" overlapTraveltime="7.99" density="8.44" overlapDensity="8.79" laneDensity="8.44" occupancy="1.35" waitingTime="0.00" timeLoss="14.27" speed="4.99" speedRelative="0.90" departed="0" arrived="0" entered="15" left="15" laneChangedFrom="0" laneChangedTo="0" flow="151.70"/>
        <edge id="-1060989493#2" sampledSeconds="70.92" traveltime="4.38" overlapTraveltime="4.73" density="9.06" overlapDensity="9.78" laneDensity="9.06" occupancy="1.45" waitingTime="0.00" timeLoss="12.56" speed="4.65" speedRelative="0.84" departed="0" arrived="0" entered="15" left="15" laneChangedFrom="0" laneChangedTo="0" flow="151.57"/>
        <edge id="-1060989493#3" sampledSeconds="43.37" traveltime="2.56" overlapTraveltime="2.89" density="8.79" overlapDensity="9.93" laneDensity="8.79" occupancy="1.40" waitingTime="0.00" timeLoss="6.72" speed="4.80" speedRelative="0.86" departed="0" arrived="0" entered="15" left="15" laneChangedFrom="0" laneChangedTo="0" flow="151.87"/>
        <edge id="-1060989493#4" sampledSeconds="138.77" traveltime="8.60" overlapTraveltime="9.25" density="9.38" overlapDensity="10.10" laneDensity="9.38" occupancy="1.52" waitingTime="2.00" timeLoss="32.55" speed="4.35" speedRelative="0.78" departed="0" arrived="0" entered="15" left="15" laneChangedFrom="0" laneChangedTo="0" flow="146.78"/>
        <edge id="-1060989493#5" sampledSeconds="44.70" traveltime="1.90" overlapTraveltime="2.23" density="11.62" overlapDensity="13.63" laneDensity="11.62" occupancy="1.86" waitingTime="0.00" timeLoss="6.72" speed="4.84" speedRelative="0.87" departed="0" arrived="0" entered="20" left="20" laneChangedFrom="0" laneChangedTo="0" flow="202.33"/>
        <edge id="-1060989493#7" sampledSeconds="100.38" traveltime="6.36" overlapTraveltime="6.69" density="8.75" overlapDensity="9.20" laneDensity="8.75" occupancy="1.40" waitingTime="0.00" timeLoss="15.61" speed="4.82" speedRelative="0.87" departed="0" arrived="0" entered="15" left="15" laneChangedFrom="0" laneChangedTo="0" flow="151.79"/>
        <edge id="-1060989493#8" sampledSeconds="78.91" traveltime="7.57" overlapTraveltime="7.89" density="5.56" overlapDensity="5.79" laneDensity="5.56" occupancy="0.89" waitingTime="0.00" timeLoss="9.17" speed="5.05" speedRelative="0.91" departed="0" arrived="0" entered="10" left="10" laneChangedFrom="0" laneChangedTo="0" flow="101.10"/>
        <edge id="-1060989493#9" sampledSeconds="10.07" traveltime="1.68" overlapTraveltime="2.01" density="3.00" overlapDensity="3.60" laneDensity="3.00" occupancy="0.48" waitingTime="0.00" timeLoss="1.82" speed="4.70" speedRelative="0.84" departed="0" arrived="0" entered="5" left="5" laneChangedFrom="0" laneChangedTo="0" flow="50.74"/>
        <edge id="-1060989494#0" sampledSeconds="8.64" traveltime="1.39" overlapTraveltime="1.73" density="3.33" overlapDensity="4.13" laneDensity="3.33" occupancy="0.53" waitingTime="0.00" timeLoss="2.12" speed="4.33" speedRelative="0.78" departed="0" arrived="0" entered="5" left="5" laneChangedFrom="0" laneChangedTo="0" flow="51.84"/>
        <edge id="-1060989494#1" sampledSeconds="84.22" traveltime="16.49" overlapTraveltime="16.84" density="2.85" overlapDensity="2.91" laneDensity="2.85" occupancy="0.46" waitingTime="0.00" timeLoss="11.94" speed="4.92" speedRelative="0.89" departed="0" arrived="0" entered="5" left="5" laneChangedFrom="0" laneChangedTo="0" flow="50.49"/>
        <edge id="-1060989494#2" sampledSeconds="38.43" traveltime="7.35" overlapTraveltime="7.69" density="2.91" overlapDensity="3.05" laneDensity="2.91" occupancy="0.47" waitingTime="0.00" timeLoss="6.15" speed="4.82" speedRelative="0.87" departed="0" arrived="0" entered="5" left="5" laneChangedFrom="0" laneChangedTo="0" flow="50.51"/>
        <edge id="-1060989494#3" sampledSeconds="0.00" departed="0" arrived="0" entered="0" left="0" laneChangedFrom="0" laneChangedTo="0"/>
        <edge id="-1060989495#0" sampledSeconds="36.11" traveltime="3.27" overlapTraveltime="3.61" density="5.80" overlapDensity="6.41" laneDensity="5.80" occupancy="0.93" waitingTime="0.00" timeLoss="3.91" speed="4.82" speedRelative="0.87" departed="0" arrived="0" entered="10" left="10" laneChangedFrom="0" laneChangedTo="0" flow="100.75"/>
        <edge id="-1060989495#1" sampledSeconds="35.51" traveltime="3.47" overlapTraveltime="3.81" density="8.24" overlapDensity="9.15" laneDensity="8.24" occupancy="1.36" waitingTime="0.00" timeLoss="14.04" speed="3.28" speedRelative="0.59" departed="5" arrived="0" entered="5" left="10" laneChangedFrom="0" laneChangedTo="0" flow="97.31"/>
        <edge id="-1060989496#0" sampledSeconds="0.00" departed="0" arrived="0" entered="0" left="0" laneChangedFrom="0" laneChangedTo="0"/>
        <edge id="-1060989496#1" sampledSeconds="0.00" departed="0" arrived="0" entered="0" left="0" laneChangedFrom="0" laneChangedTo="0"/>
        <edge id="-1060989496#2" sampledSeconds="0.00" departed="0" arrived="0" entered="0" left="0" laneChangedFrom="0" laneChangedTo="0"/>
        <edge id="-1060989496#3" sampledSeconds="0.00" departed="0" arrived="0" entered="0" left="0" laneChangedFrom="0" laneChangedTo="0"/>
        <edge id="-1060989496#4" sampledSeconds="0.00" departed="0" arrived="0" entered="0" left="0" laneChangedFrom="0" laneChangedTo="0"/>
        <edge id="-1061007736#0" sampledSeconds="0.00" departed="0" arrived="0" entered="0" left="0" laneChangedFrom="0" laneChangedTo="0"/>
        <edge id="-1061007736#1" sampledSeconds="86.12" traveltime="16.94" overlapTraveltime="17.24" density="2.71" overlapDensity="2.75" laneDensity="2.71" occupancy="0.43" waitingTime="0.00" timeLoss="7.34" speed="5.19" speedRelative="0.93" departed="0" arrived="5" entered="5" left="0" laneChangedFrom="0" laneChangedTo="0" flow="50.59"/>
        <edge id="-1061007736#2" sampledSeconds="17.51" traveltime="3.18" overlapTraveltime="3.50" density="2.90" overlapDensity="3.20" laneDensity="2.90" occupancy="0.47" waitingTime="0.00" timeLoss="2.57" speed="4.84" speedRelative="0.87" departed="0" arrived="0" entered="5" left="5" laneChangedFrom="0" laneChangedTo="0" flow="50.65"/>
        <edge id="-1061007736#3" sampledSeconds="17.25" traveltime="3.12" overlapTraveltime="3.45" density="2.87" overlapDensity="3.18" laneDensity="2.87" occupancy="0.46" waitingTime="0.00" timeLoss="2.44" speed="4.88" speedRelative="0.88" departed="0" arrived="0" entered="5" left="5" laneChangedFrom="0" laneChangedTo="0" flow="50.46"/>
        <edge id="-1061007736#4" sampledSeconds="18.62" traveltime="3.39" overlapTraveltime="3.72" density="2.89" overlapDensity="3.18" laneDensity="2.89" occupancy="0.47" waitingTime="0.00" timeLoss="2.73" speed="4.85" speedRelative="0.87" departed="0" arrived="0" entered="5" left="5" laneChangedFrom="0" laneChangedTo="0" flow="50.50"/>
        <edge id="-1061007736#5" sampledSeconds="17.03" traveltime="3.08" overlapTraveltime="3.41" density="2.89" overlapDensity="3.19" laneDensity="2.89" occupancy="0.46" waitingTime="0.00" timeLoss="2.40" speed="4.88" speedRelative="0.88" departed="0" arrived="0" entered="5" left="5" laneChangedFrom="0" laneChangedTo="0" flow="50.65"/>
        <edge id="-1061007736#6" sampledSeconds="17.92" traveltime="3.27" overlapTraveltime="3.58" density="2.78" overlapDensity="3.04" laneDensity="2.78" occupancy="0.45" waitingTime="0.00" timeLoss="1.95" speed="5.06" speedRelative="0.91" departed="0" arrived="0" entered="5" left="5" laneChangedFrom="0" laneChangedTo="0" flow="50.60"/>
        <edge id="-1061007736#7" sampledSeconds="17.16" traveltime="3.11" overlapTraveltime="3.43" density="2.78" overlapDensity="3.06" laneDensity="2.78" occupancy="0.45" waitingTime="0.00" timeLoss="1.90" speed="5.05" speedRelative="0.91" departed="0" arrived="0" entered="5" left="5" laneChangedFrom="0" laneChangedTo="0" flow="50.49"/>
        <edge id="-1061007736#8" sampledSeconds="15.10" traveltime="2.72" overlapTraveltime="3.02" density="2.66" overlapDensity="2.95" laneDensity="2.66" occupancy="0.43" waitingTime="0.00" timeLoss="1.04" speed="5.28" speedRelative="0.95" departed="0" arrived="0" entered="5" left="5" laneChangedFrom="0" laneChangedTo="0" flow="50.65"/>
        <edge id="-1061007736#9" sampledSeconds="5.44" traveltime="0.76" overlapTraveltime="1.09" density="3.22" overlapDensity="4.60" laneDensity="3.22" occupancy="0.49" waitingTime="0.00" timeLoss="1.10" speed="4.52" speedRelative="0.81" departed="0" arrived="0" entered="5" left="5" laneChangedFrom="0" laneChangedTo="0" flow="52.51"/>
        <edge id="-1061341066" sampledSeconds="0.00" departed="0" arrived="0" entered="0" left="0" laneChangedFrom="0" laneChangedTo="0"/>
        <edge id="-1061341067#0" sampledSeconds="0.00" departed="0" arrived="0" entered="0" left="0" laneChangedFrom="0" laneChangedTo="0"/>
        <edge id="-1061341067#1" sampledSeconds="0.00" departed="0" arrived="0" entered="0" left="0" laneChangedFrom="0" laneChangedTo="0"/>
        <edge id="-1081677329" sampledSeconds="0.00" departed="0" arrived="0" entered="0" left="0" laneChangedFrom="0" laneChangedTo="0"/>
        <edge id="-1081677330" sampledSeconds="0.00" departed="0" arrived="0" entered="0" left="0" laneChangedFrom="0" laneChangedTo="0"/>
        <edge id="-1081681931" sampledSeconds="0.00" departed="0" arrived="0" entered="0" left="0" laneChangedFrom="0" laneChangedTo="0"/>
        <edge id="-108179183#0" sampledSeconds="0.00" departed="0" arrived="0" entered="0" left="0" laneChangedFrom="0" laneChangedTo="0"/>
        <edge id="-108179183#1" sampledSeconds="0.00" departed="0" arrived="0" entered="0" left="0" laneChangedFrom="0" laneChangedTo="0"/>
        <edge id="-108179183#2" sampledSeconds="0.00" departed="0" arrived="0" entered="0" left="0" laneChangedFrom="0" laneChangedTo="0"/>
        <edge id="-108179314" sampledSeconds="0.00" departed="0" arrived="0" entered="0" left="0" laneChangedFrom="0" laneChangedTo="0"/>
        <edge id="-108534913#0" sampledSeconds="415.70" traveltime="48.05" overlapTraveltime="48.43" density="1.90" overlapDensity="1.91" laneDensity="1.90" occupancy="0.95" waitingTime="0.00" timeLoss="45.53" speed="12.76" speedRelative="0.92" departed="0" arrived="5" entered="10" left="0" laneChangedFrom="0" laneChangedTo="0" flow="87.24"/>
        <edge id="-108534913#1" sampledSeconds="78.73" traveltime="3.53" overlapTraveltime="3.88" density="8.70" overlapDensity="9.71" laneDensity="8.70" occupancy="2.44" waitingTime="0.00" timeLoss="17.20" speed="6.62" speedRelative="0.48" departed="0" arrived="0" entered="20" left="20" laneChangedFrom="0" laneChangedTo="0" flow="207.54"/>
        <edge id="-108534913#2" sampledSeconds="216.24" traveltime="13.86" overlapTraveltime="14.38" density="6.36" overlapDensity="6.62" laneDensity="6.36" occupancy="2.30" waitingTime="0.00" timeLoss="66.86" speed="6.64" speedRelative="0.48" departed="0" arrived="0" entered="15" left="15" laneChangedFrom="0" laneChangedTo="0" flow="151.97"/>
        <edge id="-108534913#3" sampledSeconds="60.01" traveltime="3.47" overlapTraveltime="3.98" density="6.34" overlapDensity="7.31" laneDensity="6.34" occupancy="2.29" waitingTime="0.00" timeLoss="18.83" speed="6.73" speedRelative="0.48" departed="0" arrived="0" entered="15" left="15" laneChangedFrom="0" laneChangedTo="0" flow="153.63"/>
        <edge id="-108534913#4" sampledSeconds="152.09" traveltime="9.30" overlapTraveltime="9.81" density="6.37" overlapDensity="6.73" laneDensity="6.37" occupancy="2.27" waitingTime="0.00" timeLoss="45.19" speed="6.83" speedRelative="0.49" departed="0" arrived="0" entered="16" left="15" laneChangedFrom="0" laneChangedTo="0" flow="156.70"/>
        <edge id="-108534913#5" sampledSeconds="152.46" traveltime="9.02" overlapTraveltime="9.50" density="6.49" overlapDensity="6.86" laneDensity="6.49" occupancy="2.31" waitingTime="0.00" timeLoss="44.61" speed="6.95" speedRelative="0.50" departed="0" arrived="0" entered="16" left="16" laneChangedFrom="0" laneChangedTo="0" flow="162.34"/>
        <edge id="-108534913#6" sampledSeconds="43.55" traveltime="0.03" overlapTraveltime="1.64" density="6.39" overlapDensity="476.19" laneDensity="6.39" occupancy="12.05" waitingTime="27.00" timeLoss="35.05" speed="1.71" speedRelative="0.12" departed="5" arrived="0" entered="16" left="21" laneChangedFrom="0" laneChangedTo="0" flow="39.31"/>
        <edge id="-1125729965#0" sampledSeconds="0.00" departed="0" arrived="0" entered="0" left="0" laneChangedFrom="0" laneChangedTo="0"/>
        <edge id="-1125729965#1" sampledSeconds="0.00" departed="0" arrived="0" entered="0" left="0" laneChangedFrom="0" laneChangedTo="0"/>
        <edge id="-1125729966" sampledSeconds="166.50" traveltime="32.27" overlapTraveltime="33.30" density="26.96" overlapDensity="27.82" laneDensity="26.96" occupancy="4.37" waitingTime="132.00" timeLoss="148.21" speed="0.55" speedRelative="0.10" departed="0" arrived="0" entered="5" left="5" laneChangedFrom="0" laneChangedTo="0" flow="53.66"/>
        <edge id="-1125912866" sampledSeconds="935.24" traveltime="12.76" overlapTraveltime="13.36" density="67.47" overlapDensity="69.57" laneDensity="67.47" occupancy="21.18" waitingTime="443.00" timeLoss="685.11" speed="3.06" speedRelative="0.22" departed="0" arrived="0" entered="74" left="68" laneChangedFrom="0" laneChangedTo="0" flow="743.59"/>
        <edge id="-1125912867" sampledSeconds="103.18" traveltime="1.35" overlapTraveltime="2.03" density="57.97" overlapDensity="85.75" laneDensity="57.97" occupancy="15.43" waitingTime="24.00" timeLoss="57.35" speed="3.12" speedRelative="0.22" departed="0" arrived="0" entered="52" left="51" laneChangedFrom="0" laneChangedTo="0" flow="652.02"/>
        <edge id="-1125912916#0" sampledSeconds="36.38" traveltime="0.88" overlapTraveltime="1.22" density="11.81" overlapDensity="16.32" laneDensity="11.81" occupancy="3.17" waitingTime="0.00" timeLoss="11.75" speed="7.66" speedRelative="0.55" departed="0" arrived="0" entered="30" left="30" laneChangedFrom="0" laneChangedTo="0" flow="325.81"/>
        <edge id="-1125912916#1" sampledSeconds="58.96" traveltime="1.57" overlapTraveltime="2.18" density="16.15" overlapDensity="22.85" laneDensity="16.15" occupancy="5.59" waitingTime="3.00" timeLoss="24.87" speed="4.80" speedRelative="0.35" departed="5" arrived="0" entered="25" left="30" laneChangedFrom="0" laneChangedTo="0" flow="279.00"/>
        <edge id="-1125912916#2" sampledSeconds="34.27" traveltime="1.95" overlapTraveltime="2.22" density="5.96" overlapDensity="6.97" laneDensity="5.96" occupancy="1.43" waitingTime="0.00" timeLoss="7.05" speed="7.33" speedRelative="0.53" departed="0" arrived="0" entered="15" left="15" laneChangedFrom="0" laneChangedTo="0" flow="157.21"/>
        <edge id="-1125912916#3" sampledSeconds="80.68" traveltime="5.16" overlapTraveltime="5.42" density="7.32" overlapDensity="7.78" laneDensity="7.32" occupancy="1.80" waitingTime="0.00" timeLoss="29.47" speed="5.85" speedRelative="0.42" departed="5" arrived="0" entered="10" left="15" laneChangedFrom="0" laneChangedTo="0" flow="154.17"/>
        <edge id="-1149027724" sampledSeconds="0.00" departed="0" arrived="0" entered="0" left="0" laneChangedFrom="0" laneChangedTo="0"/>
        <edge id="-1156915072#0" sampledSeconds="918.93" traveltime="11.64" overlapTraveltime="12.48" density="73.48" overlapDensity="77.94" laneDensity="73.48" occupancy="26.08" waitingTime="307.00" timeLoss="684.96" speed="2.95" speedRelative="0.21" departed="5" arrived="0" entered="71" left="73" laneChangedFrom="0" laneChangedTo="0" flow="780.06"/>
        <edge id="-1156915072#1" sampledSeconds="421.52" traveltime="6.40" overlapTraveltime="7.30" density="66.39" overlapDensity="72.82" laneDensity="66.39" occupancy="24.13" waitingTime="188.00" timeLoss="335.50" speed="2.79" speedRelative="0.20" departed="0" arrived="0" entered="60" left="60" laneChangedFrom="0" laneChangedTo="0" flow="667.69"/>
        <edge id="-1156915072#2" sampledSeconds="72.42" traveltime="1.81" overlapTraveltime="2.53" density="16.22" overlapDensity="50.48" laneDensity="16.22" occupancy="12.06" waitingTime="4.00" timeLoss="56.49" speed="3.01" speedRelative="0.22" departed="50" arrived="0" entered="0" left="50" laneChangedFrom="0" laneChangedTo="0" flow="175.65"/>
        <edge id="-1156915074" sampledSeconds="0.00" departed="0" arrived="0" entered="0" left="0" laneChangedFrom="0" laneChangedTo="0"/>
        <edge id="-1163294283" sampledSeconds="58.32" traveltime="11.48" overlapTraveltime="12.19" density="4.07" overlapDensity="4.33" laneDensity="4.07" occupancy="0.67" waitingTime="1.00" timeLoss="25.26" speed="3.24" speedRelative="0.23" departed="5" arrived="0" entered="0" left="5" laneChangedFrom="0" laneChangedTo="0" flow="47.41"/>
        <edge id="-1183389476#0" sampledSeconds="158.62" traveltime="2.24" overlapTraveltime="2.32" density="476.19" overlapDensity="476.19" laneDensity="476.19" occupancy="27.32" waitingTime="124.00" timeLoss="140.45" speed="1.17" speedRelative="0.08" departed="5" arrived="0" entered="54" left="58" laneChangedFrom="0" laneChangedTo="0" flow="2004.82"/>
        <edge id="-1183389476#1" sampledSeconds="31.47" traveltime="0.04" overlapTraveltime="0.70" density="30.37" overlapDensity="441.98" laneDensity="30.37" occupancy="8.25" waitingTime="0.00" timeLoss="16.02" speed="5.62" speedRelative="0.40" departed="0" arrived="0" entered="54" left="54" laneChangedFrom="0" laneChangedTo="0" flow="614.33"/>
        <edge id="-1183389476#2" sampledSeconds="33.18" traveltime="0.04" overlapTraveltime="0.74" density="27.68" overlapDensity="466.04" laneDensity="27.68" occupancy="8.76" waitingTime="0.00" timeLoss="15.59" speed="4.82" speedRelative="0.35" departed="5" arrived="0" entered="47" left="52" laneChangedFrom="0" laneChangedTo="0" flow="479.85"/>
        <edge id="-1183389476#3" sampledSeconds="147.47" traveltime="3.91" overlapTraveltime="4.18" density="115.53" overlapDensity="129.45" laneDensity="115.53" occupancy="26.38" waitingTime="109.00" timeLoss="127.39" speed="1.37" speedRelative="0.10" departed="0" arrived="0" entered="34" left="33" laneChangedFrom="0" laneChangedTo="0" flow="570.84"/>
        <edge id="-1183389476#4" sampledSeconds="18.47" traveltime="0.04" overlapTraveltime="0.65" density="18.08" overlapDensity="259.45" laneDensity="18.08" occupancy="4.84" waitingTime="0.00" timeLoss="8.95" speed="5.61" speedRelative="0.40" departed="0" arrived="0" entered="34" left="34" laneChangedFrom="0" laneChangedTo="0" flow="364.94"/>
        <edge id="-1188778649" sampledSeconds="0.00" departed="0" arrived="0" entered="0" left="0" laneChangedFrom="0" laneChangedTo="0"/>
        <edge id="-118915928#1" sampledSeconds="397.10" traveltime="26.30" overlapTraveltime="26.78" density="4.05" overlapDensity="4.12" laneDensity="4.05" occupancy="1.25" waitingTime="0.00" timeLoss="100.94" speed="10.22" speedRelative="0.74" departed="15" arrived="0" entered="0" left="15" laneChangedFrom="0" laneChangedTo="0" flow="148.85"/>
        <edge id="-118915930" sampledSeconds="112.81" traveltime="4.76" overlapTraveltime="14.10" density="4.84" overlapDensity="14.35" laneDensity="4.84" occupancy="5.43" waitingTime="60.00" timeLoss="92.27" speed="1.92" speedRelative="0.14" departed="0" arrived="0" entered="8" left="8" laneChangedFrom="0" laneChangedTo="0" flow="33.47"/>
        <edge id="-118915931#1" sampledSeconds="1903.81" traveltime="64.74" overlapTraveltime="66.09" density="85.63" overlapDensity="86.65" laneDensity="85.63" occupancy="30.37" waitingTime="1284.00" timeLoss="1754.90" speed="0.99" speedRelative="0.07" departed="0" arrived="0" entered="34" left="24" laneChangedFrom="0" laneChangedTo="0" flow="304.45"/>
        <edge id="-118915931#2" sampledSeconds="325.32" traveltime="17.37" overlapTraveltime="17.87" density="20.22" overlapDensity="20.69" laneDensity="20.22" occupancy="5.65" waitingTime="172.00" timeLoss="261.04" speed="2.63" speedRelative="0.19" departed="0" arrived="0" entered="21" left="15" laneChangedFrom="0" laneChangedTo="0" flow="191.43"/>
        <edge id="-118915931#3" sampledSeconds="123.27" traveltime="6.77" overlapTraveltime="7.14" density="5.30" overlapDensity="5.55" laneDensity="5.30" occupancy="2.31" waitingTime="0.00" timeLoss="35.62" speed="9.33" speedRelative="0.67" departed="20" arrived="0" entered="0" left="16" laneChangedFrom="0" laneChangedTo="0" flow="177.91"/>
        <edge id="-118915934" sampledSeconds="0.00" departed="0" arrived="0" entered="0" left="0" laneChangedFrom="0" laneChangedTo="0"/>
        <edge id="-118915940#0" sampledSeconds="39.31" traveltime="3.63" overlapTraveltime="3.94" density="2.97" overlapDensity="3.22" laneDensity="2.97" occupancy="0.64" waitingTime="0.00" timeLoss="11.18" speed="9.27" speedRelative="0.67" departed="0" arrived="5" entered="10" left="5" laneChangedFrom="0" laneChangedTo="0" flow="99.21"/>
        <edge id="-118915940#1" sampledSeconds="20.48" traveltime="3.74" overlapTraveltime="4.18" density="1.57" overlapDensity="1.71" laneDensity="1.57" occupancy="0.73" waitingTime="0.00" timeLoss="5.75" speed="9.23" speedRelative="0.66" departed="0" arrived="5" entered="5" left="0" laneChangedFrom="0" laneChangedTo="0" flow="52.08"/>
        <edge id="-118915964#0" sampledSeconds="80.02" traveltime="7.82" overlapTraveltime="8.00" density="2.42" overlapDensity="2.47" laneDensity="2.42" occupancy="0.53" waitingTime="0.00" timeLoss="13.27" speed="11.63" speedRelative="0.84" departed="0" arrived="0" entered="10" left="10" laneChangedFrom="0" laneChangedTo="0" flow="101.17"/>
        <edge id="-118915964#1" sampledSeconds="50.11" traveltime="5.07" overlapTraveltime="5.25" density="2.79" overlapDensity="2.90" laneDensity="2.79" occupancy="0.63" waitingTime="1.00" timeLoss="15.38" speed="9.66" speedRelative="0.70" departed="10" arrived="0" entered="0" left="10" laneChangedFrom="0" laneChangedTo="0" flow="97.16"/>
        <edge id="-118915966#0" sampledSeconds="66.28" traveltime="4.21" overlapTraveltime="4.45" density="3.28" overlapDensity="3.45" laneDensity="3.28" occupancy="1.03" waitingTime="0.00" timeLoss="6.35" speed="12.86" speedRelative="0.93" departed="0" arrived="15" entered="15" left="0" laneChangedFrom="0" laneChangedTo="0" flow="151.86"/>
        <edge id="-118915966#1" sampledSeconds="132.24" traveltime="4.99" overlapTraveltime="5.34" density="7.55" overlapDensity="8.09" laneDensity="7.55" occupancy="2.04" waitingTime="1.00" timeLoss="42.92" speed="9.12" speedRelative="0.66" departed="5" arrived="0" entered="20" left="25" laneChangedFrom="0" laneChangedTo="0" flow="247.92"/>
        <edge id="-118915966#2" sampledSeconds="108.16" traveltime="3.81" overlapTraveltime="4.33" density="7.68" overlapDensity="8.72" laneDensity="7.68" occupancy="2.55" waitingTime="0.00" timeLoss="30.87" speed="8.83" speedRelative="0.64" departed="0" arrived="0" entered="25" left="25" laneChangedFrom="0" laneChangedTo="0" flow="243.94"/>
        <edge id="-1190968366#0" sampledSeconds="0.00" departed="0" arrived="0" entered="0" left="0" laneChangedFrom="0" laneChangedTo="0"/>
        <edge id="-1190968366#1" sampledSeconds="0.00" departed="0" arrived="0" entered="0" left="0" laneChangedFrom="0" laneChangedTo="0"/>
        <edge id="-1190968366#2" sampledSeconds="0.00" departed="0" arrived="0" entered="0" left="0" laneChangedFrom="0" laneChangedTo="0"/>
        <edge id="-1190968366#3" sampledSeconds="0.00" departed="0" arrived="0" entered="0" left="0" laneChangedFrom="0" laneChangedTo="0"/>
        <edge id="-1190968366#4" sampledSeconds="0.00" departed="0" arrived="0" entered="0" left="0" laneChangedFrom="0" laneChangedTo="0"/>
        <edge id="-1190968366#5" sampledSeconds="0.00" departed="0" arrived="0" entered="0" left="0" laneChangedFrom="0" laneChangedTo="0"/>
        <edge id="-1191966697" sampledSeconds="15.20" traveltime="4.30" overlapTraveltime="5.07" density="2.66" overlapDensity="5.51" laneDensity="2.66" occupancy="2.05" waitingTime="0.00" timeLoss="8.72" speed="2.52" speedRelative="0.18" departed="5" arrived="0" entered="0" left="5" laneChangedFrom="0" laneChangedTo="0" flow="24.11"/>