<?xml version="1.0" encoding="UTF-8"?>

<!-- generated on 2026-02-10T20:34:32.527876+07:00 by Eclipse SUMO sumo v1_25_0+0904-59bbc76848e
<sumoConfiguration xmlns:xsi="http://www.w3.org/2001/XMLSchema-instance" xsi:noNamespaceSchemaLocation="http://sumo.dlr.de/xsd/sumoConfiguration.xsd">

    <input>
        <net-file value="maps/map_training/map2/pasubio_buslanes.net.xml"/>
        <route-files value="maps/map_training/map2/pasubio.rou.xml"/>
        <additional-files value="maps/map_training/map2/pasubio_vtypes.add.xml,maps/map_training/map2/pasubio_bus_stops.add.xml,maps/map_training/map2/pasubio_busses.rou.xml,maps/map_training/map2/pasubio_detectors.add.xml,maps/map_training/map2/pasubio_tls.add.xml"/>
    </input>

    <output>
        <tripinfo-output value="maps/map_training/map2/tripinfos.xml"/>
    </output>

    <processing>
        <scale value="7.0"/>
    </processing>

    <report>
        <no-warnings value="true"/>
        <log value="maps/map_training/map2/sumo_log.txt"/>
        <no-step-log value="true"/>
    </report>

    <emissions>
        <device.emissions.probability value="1.0"/>
    </emissions>

    <traci_server>
        <remote-port value="44227"/>
    </traci_server>

    <gui_only>
        <quit-on-end value="true"/>
        <start value="true"/>
        <delay value="20"/>
    </gui_only>

</sumoConfiguration>
-->

<tripinfos xmlns:xsi="http://www.w3.org/2001/XMLSchema-instance" xsi:noNamespaceSchemaLocation="http://sumo.dlr.de/xsd/tripinfo_file.xsd">
    <tripinfo id="Pertini_20_0.1" depart="3.00" departLane="63[0]_2" departPos="0.00" departSpeed="0.00" departDelay="3.00" arrival="74.00" arrivalLane="4[1][1][1]_1" arrivalPos="170.54" arrivalSpeed="15.15" duration="71.00" routeLength="882.71" waitingTime="0.00" waitingCount="0" stopTime="0.00" timeLoss="12.84" rerouteNo="0" devices="tripinfo_Pertini_20_0.1 emissions_Pertini_20_0.1" vType="passenger2a" speedFactor="1.10" vaporized="">
        <emissions CO_abs="2006.02" CO2_abs="174231.55" HC_abs="49.95" PMx_abs="19.14" NOx_abs="357.80" fuel_abs="54876.14" electricity_abs="0.00"/>
    </tripinfo>
    <tripinfo id="Pertini_20_0" depart="0.00" departLane="63[0]_2" departPos="0.00" departSpeed="0.00" departDelay="0.00" arrival="75.00" arrivalLane="4[1][1][1]_0" arrivalPos="170.54" arrivalSpeed="12.02" duration="75.00" routeLength="882.71" waitingTime="0.00" waitingCount="0" stopTime="0.00" timeLoss="7.32" rerouteNo="0" devices="tripinfo_Pertini_20_0 emissions_Pertini_20_0" vType="passenger2a" speedFactor="0.94" vaporized="">
        <emissions CO_abs="1175.89" CO2_abs="155067.69" HC_abs="38.67" PMx_abs="13.82" NOx_abs="294.84" fuel_abs="48840.28" electricity_abs="0.00"/>
    </tripinfo>
    <tripinfo id="Pertini_20_0.3" depart="8.00" departLane="63[0]_2" departPos="0.00" departSpeed="0.00" departDelay="8.00" arrival="77.00" arrivalLane="4[1][1][1]_0" arrivalPos="170.54" arrivalSpeed="13.63" duration="69.00" routeLength="882.71" waitingTime="0.00" waitingCount="0" stopTime="0.00" timeLoss="6.81" rerouteNo="0" devices="tripinfo_Pertini_20_0.3 emissions_Pertini_20_0.3" vType="passenger1" speedFactor="1.03" vaporized="">
        <emissions CO_abs="1064.91" CO2_abs="149580.37" HC_abs="36.09" PMx_abs="12.87" NOx_abs="283.22" fuel_abs="47112.00" electricity_abs="0.00"/>
    </tripinfo>
    <tripinfo id="Pertini_20_0.4" depart="11.00" departLane="63[0]_2" departPos="0.00" departSpeed="0.00" departDelay="11.00" arrival="77.00" arrivalLane="4[1][1][1]_1" arrivalPos="170.54" arrivalSpeed="13.72" duration="66.00" routeLength="882.71" waitingTime="0.00" waitingCount="0" stopTime="0.00" timeLoss="6.31" rerouteNo="0" devices="tripinfo_Pertini_20_0.4 emissions_Pertini_20_0.4" vType="passenger2a" speedFactor="1.07" vaporized="">
        <emissions CO_abs="1241.90" CO2_abs="147491.70" HC_abs="37.35" PMx_abs="13.76" NOx_abs="287.19" fuel_abs="46454.15" electricity_abs="0.00"/>
    </tripinfo>
    <tripinfo id="Pertini_20_0.5" depart="13.00" departLane="63[0]_2" departPos="0.00" departSpeed="0.00" departDelay="13.00" arrival="80.00" arrivalLane="4[1][1][1]_0" arrivalPos="170.54" arrivalSpeed="14.00" duration="67.00" routeLength="882.71" waitingTime="0.00" waitingCount="0" stopTime="0.00" timeLoss="5.73" rerouteNo="0" devices="tripinfo_Pertini_20_0.5 emissions_Pertini_20_0.5" vType="passenger1" speedFactor="1.04" vaporized="">
        <emissions CO_abs="910.53" CO2_abs="151959.97" HC_abs="34.16" PMx_abs="12.54" NOx_abs="281.79" fuel_abs="47861.49" electricity_abs="0.00"/>
    </tripinfo>
    <tripinfo id="Prati_Capraia_10_0" depart="0.00" departLane="3[0]_0" departPos="0.00" departSpeed="0.00" departDelay="0.00" arrival="82.00" arrivalLane="10_0" arrivalPos="223.30" arrivalSpeed="11.90" duration="82.00" routeLength="409.63" waitingTime="38.00" waitingCount="1" stopTime="0.00" timeLoss="47.92" rerouteNo="0" devices="tripinfo_Prati_Capraia_10_0 emissions_Prati_Capraia_10_0" vType="passenger1" speedFactor="0.90" vaporized="">
        <emissions CO_abs="1103.06" CO2_abs="116903.09" HC_abs="39.35" PMx_abs="9.66" NOx_abs="213.52" fuel_abs="36819.90" electricity_abs="0.00"/>
    </tripinfo>
    <tripinfo id="Prati_Capraia_10_0.1" depart="3.00" departLane="3[0]_0" departPos="0.00" departSpeed="0.00" departDelay="3.00" arrival="83.00" arrivalLane="10_0" arrivalPos="223.30" arrivalSpeed="14.03" duration="80.00" routeLength="409.63" waitingTime="37.00" waitingCount="1" stopTime="0.00" timeLoss="50.33" rerouteNo="0" devices="tripinfo_Prati_Capraia_10_0.1 emissions_Prati_Capraia_10_0.1" vType="passenger5" speedFactor="1.02" vaporized="">
        <emissions CO_abs="1386.46" CO2_abs="126838.11" HC_abs="43.97" PMx_abs="11.55" NOx_abs="240.48" fuel_abs="39949.04" electricity_abs="0.00"/>
    </tripinfo>
    <tripinfo id="Prati_Capraia_10_0.2" depart="6.00" departLane="3[0]_0" departPos="0.00" departSpeed="0.00" departDelay="6.00" arrival="87.00" arrivalLane="10_0" arrivalPos="223.30" arrivalSpeed="11.37" duration="81.00" routeLength="409.63" waitingTime="35.00" waitingCount="1" stopTime="0.00" timeLoss="46.04" rerouteNo="0" devices="tripinfo_Prati_Capraia_10_0.2 emissions_Prati_Capraia_10_0.2" vType="passenger4" speedFactor="0.88" vaporized="">
        <emissions CO_abs="1019.42" CO2_abs="113706.09" HC_abs="38.07" PMx_abs="9.25" NOx_abs="206.41" fuel_abs="35812.97" electricity_abs="0.00"/>
    </tripinfo>
    <tripinfo id="Prati_Capraia_10_0.3" depart="9.00" departLane="3[0]_0" departPos="0.00" departSpeed="0.00" departDelay="9.00" arrival="88.00" arrivalLane="10_0" arrivalPos="223.30" arrivalSpeed="14.67" duration="79.00" routeLength="409.63" waitingTime="33.00" waitingCount="1" stopTime="0.00" timeLoss="50.58" rerouteNo="0" devices="tripinfo_Prati_Capraia_10_0.3 emissions_Prati_Capraia_10_0.3" vType="passenger2a" speedFactor="1.06" vaporized="">
        <emissions CO_abs="1648.50" CO2_abs="133150.51" HC_abs="46.93" PMx_abs="13.98" NOx_abs="263.15" fuel_abs="41937.19" electricity_abs="0.00"/>
    </tripinfo>
    <tripinfo id="Certosa_9_0" depart="0.00" departLane="22[0]_1" departPos="0.00" departSpeed="0.00" departDelay="0.00" arrival="90.00" arrivalLane="2[1][1][1]b_2" arrivalPos="324.74" arrivalSpeed="14.94" duration="90.00" routeLength="602.57" waitingTime="39.00" waitingCount="1" stopTime="0.00" timeLoss="48.85" rerouteNo="0" devices="tripinfo_Certosa_9_0 emissions_Certosa_9_0" vType="passenger3" speedFactor="1.09" vaporized="">
        <emissions CO_abs="1700.51" CO2_abs="161911.09" HC_abs="52.24" PMx_abs="15.22" NOx_abs="311.26" fuel_abs="50995.67" electricity_abs="0.00"/>
    </tripinfo>
    <tripinfo id="Prati_Capraia_10_0.4" depart="11.00" departLane="3[0]_0" departPos="0.00" departSpeed="0.00" departDelay="11.00" arrival="90.00" arrivalLane="10_0" arrivalPos="223.30" arrivalSpeed="15.92" duration="79.00" routeLength="409.63" waitingTime="33.00" waitingCount="1" stopTime="0.00" timeLoss="52.53" rerouteNo="0" devices="tripinfo_Prati_Capraia_10_0.4 emissions_Prati_Capraia_10_0.4" vType="passenger2a" speedFactor="1.17" vaporized="">
        <emissions CO_abs="1862.25" CO2_abs="140332.73" HC_abs="50.68" PMx_abs="15.30" NOx_abs="282.16" fuel_abs="44199.31" electricity_abs="0.00"/>
    </tripinfo>
    <tripinfo id="Pertini_20_0.2" depart="5.00" departLane="63[0]_2" departPos="0.00" departSpeed="0.00" departDelay="5.00" arrival="91.00" arrivalLane="4[1][1][1]_0" arrivalPos="170.54" arrivalSpeed="11.35" duration="86.00" routeLength="895.82" waitingTime="0.00" waitingCount="0" stopTime="0.00" timeLoss="7.89" rerouteNo="0" devices="tripinfo_Pertini_20_0.2 emissions_Pertini_20_0.2" vType="passenger5" speedFactor="0.83" vaporized="">
        <emissions CO_abs="774.00" CO2_abs="143706.69" HC_abs="33.88" PMx_abs="11.18" NOx_abs="259.82" fuel_abs="45262.00" electricity_abs="0.00"/>
    </tripinfo>
    <tripinfo id="Prati_Capraia_10_0.5" depart="14.00" departLane="3[0]_0" departPos="0.00" departSpeed="0.00" departDelay="14.00" arrival="92.00" arrivalLane="10_0" arrivalPos="223.30" arrivalSpeed="14.09" duration="78.00" routeLength="409.63" waitingTime="32.00" waitingCount="1" stopTime="0.00" timeLoss="48.31" rerouteNo="0" devices="tripinfo_Prati_Capraia_10_0.5 emissions_Prati_Capraia_10_0.5" vType="passenger2b" speedFactor="1.05" vaporized="">
        <emissions CO_abs="1568.34" CO2_abs="132422.94" HC_abs="46.08" PMx_abs="12.97" NOx_abs="258.19" fuel_abs="41708.04" electricity_abs="0.00"/>
    </tripinfo>
    <tripinfo id="Prati_Capraia_10_0.6" depart="16.00" departLane="3[0]_0" departPos="0.00" departSpeed="0.00" departDelay="16.00" arrival="93.00" arrivalLane="10_0" arrivalPos="223.30" arrivalSpeed="13.44" duration="77.00" routeLength="409.63" waitingTime="32.00" waitingCount="1" stopTime="0.00" timeLoss="46.57" rerouteNo="0" devices="tripinfo_Prati_Capraia_10_0.6 emissions_Prati_Capraia_10_0.6" vType="passenger4" speedFactor="1.00" vaporized="">
        <emissions CO_abs="1295.77" CO2_abs="123588.35" HC_abs="41.74" PMx_abs="11.18" NOx_abs="233.67" fuel_abs="38925.49" electricity_abs="0.00"/>
    </tripinfo>
    <tripinfo id="Prati_Capraia_10_1" depart="19.00" departLane="3[0]_0" departPos="0.00" departSpeed="0.00" departDelay="15.00" arrival="95.00" arrivalLane="10_0" arrivalPos="223.30" arrivalSpeed="14.62" duration="76.00" routeLength="409.63" waitingTime="31.00" waitingCount="1" stopTime="0.00" timeLoss="46.79" rerouteNo="0" devices="tripinfo_Prati_Capraia_10_1 emissions_Prati_Capraia_10_1" vType="passenger1" speedFactor="1.06" vaporized="">
        <emissions CO_abs="1519.71" CO2_abs="132064.70" HC_abs="45.39" PMx_abs="12.69" NOx_abs="256.08" fuel_abs="41595.21" electricity_abs="0.00"/>
    </tripinfo>
    <tripinfo id="Certosa_9_0.2" depart="5.00" departLane="22[0]_1" departPos="0.00" departSpeed="0.00" departDelay="5.00" arrival="96.00" arrivalLane="2[1][1][1]b_2" arrivalPos="324.74" arrivalSpeed="14.38" duration="91.00" routeLength="602.57" waitingTime="35.00" waitingCount="1" stopTime="0.00" timeLoss="51.44" rerouteNo="0" devices="tripinfo_Certosa_9_0.2 emissions_Certosa_9_0.2" vType="passenger1" speedFactor="1.12" vaporized="">
        <emissions CO_abs="1788.20" CO2_abs="157507.67" HC_abs="52.42" PMx_abs="15.61" NOx_abs="307.75" fuel_abs="49608.76" electricity_abs="0.00"/>
    </tripinfo>
    <tripinfo id="Certosa_9_0.1" depart="2.00" departLane="22[0]_1" departPos="0.00" departSpeed="0.00" departDelay="2.00" arrival="97.00" arrivalLane="2[1][1][1]b_1" arrivalPos="324.74" arrivalSpeed="12.74" duration="95.00" routeLength="602.57" waitingTime="35.00" waitingCount="1" stopTime="0.00" timeLoss="46.67" rerouteNo="0" devices="tripinfo_Certosa_9_0.1 emissions_Certosa_9_0.1" vType="passenger2b" speedFactor="0.92" vaporized="">
        <emissions CO_abs="1384.84" CO2_abs="143722.84" HC_abs="46.40" PMx_abs="12.55" NOx_abs="269.03" fuel_abs="45267.07" electricity_abs="0.00"/>
    </tripinfo>
    <tripinfo id="Prati_Capraia_10_1.1" depart="22.00" departLane="3[0]_0" departPos="0.00" departSpeed="0.00" departDelay="18.00" arrival="97.00" arrivalLane="10_0" arrivalPos="223.30" arrivalSpeed="14.90" duration="75.00" routeLength="409.63" waitingTime="29.00" waitingCount="1" stopTime="0.00" timeLoss="46.90" rerouteNo="0" devices="tripinfo_Prati_Capraia_10_1.1 emissions_Prati_Capraia_10_1.1" vType="passenger1" speedFactor="1.11" vaporized="">
        <emissions CO_abs="1555.76" CO2_abs="139071.65" HC_abs="46.80" PMx_abs="13.11" NOx_abs="269.26" fuel_abs="43802.13" electricity_abs="0.00"/>
    </tripinfo>
    <tripinfo id="Pertini_20_1" depart="18.00" departLane="63[0]_2" departPos="0.00" departSpeed="0.00" departDelay="16.00" arrival="98.00" arrivalLane="4[1][1][1]_1" arrivalPos="170.54" arrivalSpeed="13.55" duration="80.00" routeLength="882.71" waitingTime="0.00" waitingCount="0" stopTime="0.00" timeLoss="18.08" rerouteNo="0" devices="tripinfo_Pertini_20_1 emissions_Pertini_20_1" vType="passenger4" speedFactor="1.03" vaporized="">
        <emissions CO_abs="1232.66" CO2_abs="157217.73" HC_abs="40.24" PMx_abs="14.41" NOx_abs="300.33" fuel_abs="49517.45" electricity_abs="0.00"/>
    </tripinfo>
    <tripinfo id="Prati_Capraia_10_1.2" depart="24.00" departLane="3[0]_0" departPos="0.00" departSpeed="0.00" departDelay="20.00" arrival="98.00" arrivalLane="10_0" arrivalPos="223.30" arrivalSpeed="13.29" duration="74.00" routeLength="409.63" waitingTime="29.00" waitingCount="2" stopTime="0.00" timeLoss="44.02" rerouteNo="0" devices="tripinfo_Prati_Capraia_10_1.2 emissions_Prati_Capraia_10_1.2" vType="passenger3" speedFactor="1.01" vaporized="">
        <emissions CO_abs="1208.93" CO2_abs="115097.37" HC_abs="38.74" PMx_abs="10.50" NOx_abs="218.45" fuel_abs="36251.17" electricity_abs="0.00"/>
    </tripinfo>
    <tripinfo id="Pertini_20_1.2" depart="24.00" departLane="63[0]_2" departPos="0.00" departSpeed="0.00" departDelay="22.00" arrival="100.00" arrivalLane="4[1][1][1]_1" arrivalPos="170.54" arrivalSpeed="14.07" duration="76.00" routeLength="882.71" waitingTime="0.00" waitingCount="0" stopTime="0.00" timeLoss="16.76" rerouteNo="0" devices="tripinfo_Pertini_20_1.2 emissions_Pertini_20_1.2" vType="passenger1" speedFactor="1.09" vaporized="">
        <emissions CO_abs="1478.01" CO2_abs="162738.29" HC_abs="43.22" PMx_abs="15.44" NOx_abs="318.08" fuel_abs="51256.22" electricity_abs="0.00"/>
    </tripinfo>
    <tripinfo id="Prati_Capraia_10_1.3" depart="28.00" departLane="3[0]_0" departPos="0.00" departSpeed="0.00" departDelay="24.00" arrival="100.00" arrivalLane="10_0" arrivalPos="223.30" arrivalSpeed="15.65" duration="72.00" routeLength="409.63" waitingTime="26.00" waitingCount="1" stopTime="0.00" timeLoss="44.57" rerouteNo="0" devices="tripinfo_Prati_Capraia_10_1.3 emissions_Prati_Capraia_10_1.3" vType="passenger3" speedFactor="1.13" vaporized="">
        <emissions CO_abs="1652.96" CO2_abs="132215.05" HC_abs="45.43" PMx_abs="14.03" NOx_abs="263.72" fuel_abs="41642.56" electricity_abs="0.00"/>
    </tripinfo>
    <tripinfo id="Prati_Capraia_10_1.4" depart="31.00" departLane="3[0]_0" departPos="0.00" departSpeed="0.00" departDelay="27.00" arrival="101.00" arrivalLane="10_0" arrivalPos="223.30" arrivalSpeed="16.53" duration="70.00" routeLength="409.63" waitingTime="26.00" waitingCount="1" stopTime="0.00" timeLoss="44.99" rerouteNo="0" devices="tripinfo_Prati_Capraia_10_1.4 emissions_Prati_Capraia_10_1.4" vType="passenger2a" speedFactor="1.21" vaporized="">
        <emissions CO_abs="1841.75" CO2_abs="141976.43" HC_abs="48.78" PMx_abs="16.08" NOx_abs="287.96" fuel_abs="44717.02" electricity_abs="0.00"/>
    </tripinfo>
    <tripinfo id="Certosa_9_0.3" depart="7.00" departLane="22[0]_1" departPos="0.00" departSpeed="0.00" departDelay="7.00" arrival="102.00" arrivalLane="2[1][1][1]b_1" arrivalPos="324.74" arrivalSpeed="12.03" duration="95.00" routeLength="602.57" waitingTime="32.00" waitingCount="1" stopTime="0.00" timeLoss="45.56" rerouteNo="0" devices="tripinfo_Certosa_9_0.3 emissions_Certosa_9_0.3" vType="passenger1" speedFactor="0.90" vaporized="">
        <emissions CO_abs="1200.84" CO2_abs="140705.79" HC_abs="44.24" PMx_abs="11.47" NOx_abs="257.66" fuel_abs="44316.82" electricity_abs="0.00"/>
    </tripinfo>
    <tripinfo id="Pertini_20_1.4" depart="28.00" departLane="63[0]_2" departPos="0.00" departSpeed="0.00" departDelay="26.00" arrival="102.00" arrivalLane="4[1][1][1]_1" arrivalPos="170.54" arrivalSpeed="13.49" duration="74.00" routeLength="882.71" waitingTime="0.00" waitingCount="0" stopTime="0.00" timeLoss="10.92" rerouteNo="0" devices="tripinfo_Pertini_20_1.4 emissions_Pertini_20_1.4" vType="passenger1" speedFactor="1.02" vaporized="">
        <emissions CO_abs="1066.96" CO2_abs="158318.60" HC_abs="37.75" PMx_abs="13.57" NOx_abs="296.61" fuel_abs="49864.20" electricity_abs="0.00"/>
    </tripinfo>
    <tripinfo id="Certosa_9_0.4" depart="10.00" departLane="22[0]_1" departPos="0.00" departSpeed="0.00" departDelay="10.00" arrival="103.00" arrivalLane="2[1][1][1]b_2" arrivalPos="324.74" arrivalSpeed="12.77" duration="93.00" routeLength="602.57" waitingTime="32.00" waitingCount="1" stopTime="0.00" timeLoss="45.31" rerouteNo="0" devices="tripinfo_Certosa_9_0.4 emissions_Certosa_9_0.4" vType="passenger5" speedFactor="0.93" vaporized="">
        <emissions CO_abs="1250.13" CO2_abs="142923.88" HC_abs="44.98" PMx_abs="11.76" NOx_abs="263.30" fuel_abs="45015.43" electricity_abs="0.00"/>
    </tripinfo>
    <tripinfo id="Certosa_9_0.5" depart="13.00" departLane="22[0]_1" departPos="0.00" departSpeed="0.00" departDelay="13.00" arrival="105.00" arrivalLane="2[1][1][1]b_2" arrivalPos="324.74" arrivalSpeed="14.09" duration="92.00" routeLength="602.57" waitingTime="31.00" waitingCount="1" stopTime="0.00" timeLoss="49.14" rerouteNo="0" devices="tripinfo_Certosa_9_0.5 emissions_Certosa_9_0.5" vType="passenger1" speedFactor="1.04" vaporized="">
        <emissions CO_abs="1832.31" CO2_abs="158273.40" HC_abs="52.94" PMx_abs="15.69" NOx_abs="310.93" fuel_abs="49849.93" electricity_abs="0.00"/>
    </tripinfo>
    <tripinfo id="Pertini_20_1.6" depart="31.00" departLane="63[0]_2" departPos="0.00" departSpeed="0.00" departDelay="29.00" arrival="105.00" arrivalLane="4[1][1][1]_1" arrivalPos="170.54" arrivalSpeed="12.72" duration="74.00" routeLength="882.71" waitingTime="0.00" waitingCount="0" stopTime="0.00" timeLoss="8.14" rerouteNo="0" devices="tripinfo_Pertini_20_1.6 emissions_Pertini_20_1.6" vType="passenger2b" speedFactor="0.98" vaporized="">
        <emissions CO_abs="1032.95" CO2_abs="146990.10" HC_abs="35.52" PMx_abs="12.70" NOx_abs="276.39" fuel_abs="46296.16" electricity_abs="0.00"/>
    </tripinfo>
    <tripinfo id="Pertini_20_0.6" depart="16.00" departLane="63[0]_2" departPos="0.00" departSpeed="0.00" departDelay="16.00" arrival="106.00" arrivalLane="4[1][1][1]_0" arrivalPos="170.54" arrivalSpeed="9.57" duration="90.00" routeLength="882.71" waitingTime="0.00" waitingCount="0" stopTime="0.00" timeLoss="7.41" rerouteNo="0" devices="tripinfo_Pertini_20_0.6 emissions_Pertini_20_0.6" vType="passenger3" speedFactor="0.77" vaporized="">
        <emissions CO_abs="850.22" CO2_abs="146362.35" HC_abs="35.48" PMx_abs="11.49" NOx_abs="264.99" fuel_abs="46098.42" electricity_abs="0.00"/>
    </tripinfo>
    <tripinfo id="Pertini_20_2.2" depart="36.00" departLane="63[0]_2" departPos="0.00" departSpeed="0.00" departDelay="32.00" arrival="107.00" arrivalLane="4[1][1][1]_1" arrivalPos="170.54" arrivalSpeed="13.32" duration="71.00" routeLength="882.71" waitingTime="0.00" waitingCount="0" stopTime="0.00" timeLoss="9.18" rerouteNo="0" devices="tripinfo_Pertini_20_2.2 emissions_Pertini_20_2.2" vType="passenger1" speedFactor="1.04" vaporized="">
        <emissions CO_abs="1156.60" CO2_abs="155416.12" HC_abs="38.01" PMx_abs="13.58" NOx_abs="295.20" fuel_abs="48950.03" electricity_abs="0.00"/>
    </tripinfo>
    <tripinfo id="Certosa_9_0.6" depart="16.00" departLane="22[0]_1" departPos="0.00" departSpeed="0.00" departDelay="16.00" arrival="108.00" arrivalLane="2[1][1][1]b_1" arrivalPos="324.74" arrivalSpeed="11.67" duration="92.00" routeLength="602.57" waitingTime="29.00" waitingCount="1" stopTime="0.00" timeLoss="44.57" rerouteNo="0" devices="tripinfo_Certosa_9_0.6 emissions_Certosa_9_0.6" vType="passenger3" speedFactor="0.94" vaporized="">
        <emissions CO_abs="1435.05" CO2_abs="149954.41" HC_abs="47.05" PMx_abs="13.54" NOx_abs="282.31" fuel_abs="47229.78" electricity_abs="0.00"/>
    </tripinfo>
    <tripinfo id="Pertini_20_2" depart="33.00" departLane="63[0]_2" departPos="0.00" departSpeed="0.00" departDelay="29.00" arrival="108.00" arrivalLane="4[1][1][1]_0" arrivalPos="170.54" arrivalSpeed="13.84" duration="75.00" routeLength="882.71" waitingTime="0.00" waitingCount="0" stopTime="0.00" timeLoss="12.86" rerouteNo="0" devices="tripinfo_Pertini_20_2 emissions_Pertini_20_2" vType="passenger1" speedFactor="1.03" vaporized="">
        <emissions CO_abs="1253.73" CO2_abs="156802.33" HC_abs="39.77" PMx_abs="14.29" NOx_abs="300.81" fuel_abs="49386.62" electricity_abs="0.00"/>
    </tripinfo>
    <tripinfo id="Prati_Capraia_10_1.5" depart="33.00" departLane="3[0]_0" departPos="0.00" departSpeed="0.00" departDelay="29.00" arrival="108.00" arrivalLane="10_0" arrivalPos="223.30" arrivalSpeed="12.17" duration="75.00" routeLength="409.63" waitingTime="24.00" waitingCount="1" stopTime="0.00" timeLoss="39.82" rerouteNo="0" devices="tripinfo_Prati_Capraia_10_1.5 emissions_Prati_Capraia_10_1.5" vType="passenger2b" speedFactor="0.89" vaporized="">
        <emissions CO_abs="1207.50" CO2_abs="115771.09" HC_abs="38.78" PMx_abs="10.80" NOx_abs="219.99" fuel_abs="36463.36" electricity_abs="0.00"/>
    </tripinfo>
    <tripinfo id="Prati_Capraia_10_1.6" depart="35.00" departLane="3[0]_0" departPos="0.00" departSpeed="0.00" departDelay="31.00" arrival="109.00" arrivalLane="10_0" arrivalPos="223.30" arrivalSpeed="12.55" duration="74.00" routeLength="409.63" waitingTime="24.00" waitingCount="2" stopTime="0.00" timeLoss="42.12" rerouteNo="0" devices="tripinfo_Prati_Capraia_10_1.6 emissions_Prati_Capraia_10_1.6" vType="passenger2b" speedFactor="0.97" vaporized="">
        <emissions CO_abs="1397.93" CO2_abs="125197.87" HC_abs="42.05" PMx_abs="12.18" NOx_abs="242.67" fuel_abs="39432.42" electricity_abs="0.00"/>
    </tripinfo>
    <tripinfo id="Pertini_20_2.4" depart="39.00" departLane="63[0]_2" departPos="0.00" departSpeed="0.00" departDelay="35.00" arrival="110.00" arrivalLane="4[1][1][1]_0" arrivalPos="170.54" arrivalSpeed="12.85" duration="71.00" routeLength="882.71" waitingTime="0.00" waitingCount="0" stopTime="0.00" timeLoss="7.36" rerouteNo="0" devices="tripinfo_Pertini_20_2.4 emissions_Pertini_20_2.4" vType="passenger1" speedFactor="1.01" vaporized="">
        <emissions CO_abs="1292.97" CO2_abs="153612.81" HC_abs="38.98" PMx_abs="14.20" NOx_abs="297.18" fuel_abs="48382.05" electricity_abs="0.00"/>
    </tripinfo>
    <tripinfo id="Pertini_20_2.6" depart="41.00" departLane="63[0]_2" departPos="0.00" departSpeed="0.00" departDelay="37.00" arrival="111.00" arrivalLane="4[1][1][1]_1" arrivalPos="170.54" arrivalSpeed="13.56" duration="70.00" routeLength="882.71" waitingTime="0.00" waitingCount="0" stopTime="0.00" timeLoss="6.44" rerouteNo="0" devices="tripinfo_Pertini_20_2.6 emissions_Pertini_20_2.6" vType="passenger1" speedFactor="1.00" vaporized="">
        <emissions CO_abs="834.16" CO2_abs="144606.32" HC_abs="32.76" PMx_abs="11.73" NOx_abs="266.57" fuel_abs="45545.37" electricity_abs="0.00"/>
    </tripinfo>
    <tripinfo id="Pertini_20_7" depart="44.00" departLane="63[0]_2" departPos="0.00" departSpeed="0.00" departDelay="29.00" arrival="111.00" arrivalLane="4[1][1][1]_0" arrivalPos="170.54" arrivalSpeed="14.99" duration="67.00" routeLength="882.71" waitingTime="0.00" waitingCount="0" stopTime="0.00" timeLoss="13.20" rerouteNo="0" devices="tripinfo_Pertini_20_7 emissions_Pertini_20_7" vType="passenger2a" speedFactor="1.19" vaporized="">
        <emissions CO_abs="1967.40" CO2_abs="175442.74" HC_abs="49.34" PMx_abs="19.07" NOx_abs="359.34" fuel_abs="55257.62" electricity_abs="0.00"/>
    </tripinfo>
    <tripinfo id="Sabotino_9_1" depart="20.00" departLane="41_0" departPos="0.00" departSpeed="0.00" departDelay="11.00" arrival="118.00" arrivalLane="2[1][1][1]b_2" arrivalPos="324.74" arrivalSpeed="15.55" duration="98.00" routeLength="1123.23" waitingTime="11.00" waitingCount="1" stopTime="0.00" timeLoss="25.59" rerouteNo="0" devices="tripinfo_Sabotino_9_1 emissions_Sabotino_9_1" vType="passenger1" speedFactor="1.13" vaporized="">
        <emissions CO_abs="2042.84" CO2_abs="213083.22" HC_abs="58.63" PMx_abs="20.33" NOx_abs="418.47" fuel_abs="67112.93" electricity_abs="0.00"/>
    </tripinfo>
    <tripinfo id="Sabotino_9_0" depart="0.00" departLane="41_0" departPos="0.00" departSpeed="0.00" departDelay="0.00" arrival="120.00" arrivalLane="2[1][1][1]b_0" arrivalPos="324.74" arrivalSpeed="14.41" duration="120.00" routeLength="1123.23" waitingTime="28.00" waitingCount="2" stopTime="0.00" timeLoss="45.86" rerouteNo="0" devices="tripinfo_Sabotino_9_0 emissions_Sabotino_9_0" vType="passenger5" speedFactor="1.10" vaporized="">
        <emissions CO_abs="2073.93" CO2_abs="239681.82" HC_abs="66.85" PMx_abs="21.35" NOx_abs="456.02" fuel_abs="75490.44" electricity_abs="0.00"/>
    </tripinfo>
    <tripinfo id="Sabotino_9_0.3" depart="9.00" departLane="41_0" departPos="0.00" departSpeed="0.00" departDelay="9.00" arrival="120.00" arrivalLane="2[1][1][1]b_1" arrivalPos="324.74" arrivalSpeed="13.82" duration="111.00" routeLength="1123.23" waitingTime="18.00" waitingCount="1" stopTime="0.00" timeLoss="31.36" rerouteNo="0" devices="tripinfo_Sabotino_9_0.3 emissions_Sabotino_9_0.3" vType="passenger1" speedFactor="1.02" vaporized="">
        <emissions CO_abs="1563.99" CO2_abs="207159.13" HC_abs="54.96" PMx_abs="17.32" NOx_abs="387.19" fuel_abs="65247.06" electricity_abs="0.00"/>
    </tripinfo>
    <tripinfo id="Sabotino_9_0.5" depart="14.00" departLane="41_0" departPos="0.00" departSpeed="0.00" departDelay="14.00" arrival="120.00" arrivalLane="2[1][1][1]b_2" arrivalPos="324.74" arrivalSpeed="14.39" duration="106.00" routeLength="1123.23" waitingTime="16.00" waitingCount="1" stopTime="0.00" timeLoss="33.22" rerouteNo="0" devices="tripinfo_Sabotino_9_0.5 emissions_Sabotino_9_0.5" vType="passenger2a" speedFactor="1.12" vaporized="">
        <emissions CO_abs="2188.40" CO2_abs="216527.75" HC_abs="62.17" PMx_abs="21.23" NOx_abs="426.82" fuel_abs="68197.80" electricity_abs="0.00"/>
    </tripinfo>
    <tripinfo id="Pertini_20_1.1" depart="22.00" departLane="63[0]_2" departPos="0.00" departSpeed="0.00" departDelay="20.00" arrival="120.00" arrivalLane="4[1][1][1]_0" arrivalPos="170.54" arrivalSpeed="12.54" duration="98.00" routeLength="882.71" waitingTime="16.00" waitingCount="1" stopTime="0.00" timeLoss="27.97" rerouteNo="0" devices="tripinfo_Pertini_20_1.1 emissions_Pertini_20_1.1" vType="passenger2a" speedFactor="0.92" vaporized="">
        <emissions CO_abs="1385.12" CO2_abs="177985.87" HC_abs="48.30" PMx_abs="15.41" NOx_abs="332.84" fuel_abs="56058.60" electricity_abs="0.00"/>
    </tripinfo>
    <tripinfo id="Pertini_20_1.3" depart="28.00" departLane="63[0]_1" departPos="0.00" departSpeed="0.00" departDelay="26.00" arrival="122.00" arrivalLane="4[1][1][1]_0" arrivalPos="170.54" arrivalSpeed="12.26" duration="94.00" routeLength="882.71" waitingTime="12.00" waitingCount="1" stopTime="0.00" timeLoss="23.18" rerouteNo="0" devices="tripinfo_Pertini_20_1.3 emissions_Pertini_20_1.3" vType="passenger2b" speedFactor="0.90" vaporized="">
        <emissions CO_abs="1262.18" CO2_abs="164779.18" HC_abs="44.42" PMx_abs="14.08" NOx_abs="307.77" fuel_abs="51899.01" electricity_abs="0.00"/>
    </tripinfo>
    <tripinfo id="Prati_Capraia_100_2.4" depart="38.00" departLane="3[0]_0" departPos="0.00" departSpeed="0.00" departDelay="29.00" arrival="123.00" arrivalLane="3[1]b_0" arrivalPos="238.77" arrivalSpeed="14.17" duration="85.00" routeLength="624.48" waitingTime="23.00" waitingCount="1" stopTime="0.00" timeLoss="41.19" rerouteNo="0" devices="tripinfo_Prati_Capraia_100_2.4 emissions_Prati_Capraia_100_2.4" vType="passenger1" speedFactor="1.04" vaporized="">
        <emissions CO_abs="1528.15" CO2_abs="150418.40" HC_abs="46.83" PMx_abs="14.20" NOx_abs="289.92" fuel_abs="47375.92" electricity_abs="0.00"/>
    </tripinfo>
    <tripinfo id="Prati_Capraia_100_2.2" depart="33.00" departLane="3[0]_1" departPos="0.00" departSpeed="0.00" departDelay="24.00" arrival="124.00" arrivalLane="3[1]b_1" arrivalPos="238.77" arrivalSpeed="15.28" duration="91.00" routeLength="624.48" waitingTime="23.00" waitingCount="2" stopTime="0.00" timeLoss="51.31" rerouteNo="0" devices="tripinfo_Prati_Capraia_100_2.2 emissions_Prati_Capraia_100_2.2" vType="passenger3" speedFactor="1.15" vaporized="">
        <emissions CO_abs="1527.95" CO2_abs="152834.13" HC_abs="48.37" PMx_abs="13.67" NOx_abs="290.75" fuel_abs="48136.78" electricity_abs="0.00"/>
    </tripinfo>
    <tripinfo id="Sabotino_9_1.5" depart="34.00" departLane="41_0" departPos="0.00" departSpeed="0.00" departDelay="25.00" arrival="124.00" arrivalLane="2[1][1][1]b_2" arrivalPos="324.74" arrivalSpeed="15.38" duration="90.00" routeLength="1123.23" waitingTime="0.00" waitingCount="0" stopTime="0.00" timeLoss="16.98" rerouteNo="0" devices="tripinfo_Sabotino_9_1.5 emissions_Sabotino_9_1.5" vType="passenger2a" speedFactor="1.11" vaporized="">
        <emissions CO_abs="2098.95" CO2_abs="209558.26" HC_abs="56.75" PMx_abs="21.08" NOx_abs="418.49" fuel_abs="66002.69" electricity_abs="0.00"/>
    </tripinfo>
    <tripinfo id="Sabotino_9_0.2" depart="6.00" departLane="41_0" departPos="0.00" departSpeed="0.00" departDelay="6.00" arrival="125.00" arrivalLane="2[1][1][1]b_0" arrivalPos="324.74" arrivalSpeed="12.58" duration="119.00" routeLength="1123.23" waitingTime="20.00" waitingCount="1" stopTime="0.00" timeLoss="34.62" rerouteNo="0" devices="tripinfo_Sabotino_9_0.2 emissions_Sabotino_9_0.2" vType="passenger3" speedFactor="0.96" vaporized="">