<?xml version="1.0" encoding="UTF-8"?>

<!-- generated on 2026-03-10T22:07:09.452445+07:00 by Eclipse SUMO GUI 1.26.0
<sumoConfiguration xmlns:xsi="http://www.w3.org/2001/XMLSchema-instance" xsi:noNamespaceSchemaLocation="http://sumo.dlr.de/xsd/sumoConfiguration.xsd">

    <input>
        <net-file value="maps/map3/acosta_buslanes.net.xml"/>
        <route-files value="maps/map3/acosta.rou.xml,maps/map3/acosta_busses.rou.xml"/>
        <additional-files value="maps/map3/acosta_vtypes.add.xml,maps/map3/acosta_detectors.add.xml,maps/map3/acosta_bus_stops.add.xml,maps/map3/acosta_tls.add.xml"/>
    </input>

    <output>
        <tripinfo-output value="maps/map3/tripinfos.xml"/>
    </output>

    <time>
        <step-length value="0.5"/>
    </time>

    <processing>
        <collision.action value="remove"/>
        <collision.check-junctions value="true"/>
        <scale value="1.0"/>
        <time-to-teleport value="-1"/>
    </processing>

    <report>
        <no-warnings value="true"/>
        <log value="maps/map3/sumo_log.txt"/>
        <no-step-log value="true"/>
    </report>

    <emissions>
        <device.emissions.probability value="1.0"/>
    </emissions>

    <traci_server>
        <remote-port value="35247"/>
    </traci_server>

    <gui_only>
        <gui-settings-file value="maps/map3/settings.gui.xml"/>
        <quit-on-end value="true"/>
        <start value="true"/>
        <delay value="0"/>
    </gui_only>

</sumoConfiguration>
-->

<tripinfos xmlns:xsi="http://www.w3.org/2001/XMLSchema-instance" xsi:noNamespaceSchemaLocation="http://sumo.dlr.de/xsd/tripinfo_file.xsd">
    <tripinfo id="Pepoli_8_16" depart="27.00" departLane="210_0" departPos="0.00" departSpeed="0.00" departDelay="0.00" arrival="80.00" arrivalLane="134b_0" arrivalPos="156.17" arrivalSpeed="14.94" duration="53.00" routeLength="692.71" waitingTime="0.00" waitingCount="0" stopTime="0.00" timeLoss="6.25" rerouteNo="0" devices="tripinfo_Pepoli_8_16 emissions_Pepoli_8_16" vType="passenger1" speedFactor="1.09" vaporized="">
        <emissions CO_abs="1217.46" CO2_abs="132953.97" HC_abs="34.82" PMx_abs="12.91" NOx_abs="261.80" fuel_abs="41875.33" electricity_abs="0.00"/>
    </tripinfo>
    <tripinfo id="Pepoli_8_21" depart="36.00" departLane="210_0" departPos="0.00" departSpeed="0.00" departDelay="0.00" arrival="90.00" arrivalLane="134b_0" arrivalPos="156.17" arrivalSpeed="16.90" duration="54.00" routeLength="692.71" waitingTime="0.00" waitingCount="0" stopTime="0.00" timeLoss="13.08" rerouteNo="0" devices="tripinfo_Pepoli_8_21 emissions_Pepoli_8_21" vType="passenger1" speedFactor="1.25" vaporized="">
        <emissions CO_abs="1451.29" CO2_abs="141947.78" HC_abs="38.82" PMx_abs="14.38" NOx_abs="284.60" fuel_abs="44708.02" electricity_abs="0.00"/>
    </tripinfo>
    <tripinfo id="Pepoli_8_23" depart="39.00" departLane="210_0" departPos="0.00" departSpeed="0.00" departDelay="0.00" arrival="93.50" arrivalLane="134b_0" arrivalPos="156.17" arrivalSpeed="15.57" duration="54.50" routeLength="692.71" waitingTime="0.00" waitingCount="0" stopTime="0.00" timeLoss="9.43" rerouteNo="0" devices="tripinfo_Pepoli_8_23 emissions_Pepoli_8_23" vType="passenger1" speedFactor="1.13" vaporized="">
        <emissions CO_abs="1398.16" CO2_abs="140644.15" HC_abs="38.28" PMx_abs="13.91" NOx_abs="280.27" fuel_abs="44297.43" electricity_abs="0.00"/>
    </tripinfo>
    <tripinfo id="Togliatti_2_8" depart="11.00" departLane="85_0" departPos="0.00" departSpeed="0.00" departDelay="0.00" arrival="98.00" arrivalLane="77[1][1]_0" arrivalPos="463.98" arrivalSpeed="15.19" duration="87.00" routeLength="1145.48" waitingTime="0.00" waitingCount="0" stopTime="0.00" timeLoss="10.37" rerouteNo="0" devices="tripinfo_Togliatti_2_8 emissions_Togliatti_2_8" vType="passenger2a" speedFactor="1.10" vaporized="">
        <emissions CO_abs="2442.10" CO2_abs="229476.60" HC_abs="62.82" PMx_abs="24.77" NOx_abs="466.25" fuel_abs="72276.19" electricity_abs="0.00"/>
    </tripinfo>
    <tripinfo id="Pepoli_8_25" depart="42.00" departLane="210_0" departPos="0.00" departSpeed="0.00" departDelay="0.00" arrival="99.50" arrivalLane="134b_0" arrivalPos="156.17" arrivalSpeed="13.67" duration="57.50" routeLength="692.71" waitingTime="0.00" waitingCount="0" stopTime="0.00" timeLoss="8.41" rerouteNo="0" devices="tripinfo_Pepoli_8_25 emissions_Pepoli_8_25" vType="passenger2a" speedFactor="1.03" vaporized="">
        <emissions CO_abs="1363.39" CO2_abs="136675.92" HC_abs="37.13" PMx_abs="14.08" NOx_abs="272.48" fuel_abs="43047.58" electricity_abs="0.00"/>
    </tripinfo>
    <tripinfo id="Costa_1_4" depart="14.00" departLane="78[0]_0" departPos="0.00" departSpeed="0.00" departDelay="4.00" arrival="111.50" arrivalLane="86_1" arrivalPos="321.19" arrivalSpeed="13.78" duration="97.50" routeLength="1182.48" waitingTime="0.00" waitingCount="0" stopTime="0.00" timeLoss="9.99" rerouteNo="0" devices="tripinfo_Costa_1_4 emissions_Costa_1_4" vType="passenger2a" speedFactor="0.99" vaporized="">
        <emissions CO_abs="2003.44" CO2_abs="223059.82" HC_abs="58.48" PMx_abs="21.98" NOx_abs="437.54" fuel_abs="70255.15" electricity_abs="0.00"/>
    </tripinfo>
    <tripinfo id="Costa_1_2" depart="9.00" departLane="78[0]_0" departPos="0.00" departSpeed="0.00" departDelay="4.00" arrival="113.00" arrivalLane="86_1" arrivalPos="321.19" arrivalSpeed="13.64" duration="104.00" routeLength="1188.84" waitingTime="6.50" waitingCount="1" stopTime="0.00" timeLoss="18.45" rerouteNo="0" devices="tripinfo_Costa_1_2 emissions_Costa_1_2" vType="passenger2b" speedFactor="1.02" vaporized="">
        <emissions CO_abs="2000.78" CO2_abs="232793.96" HC_abs="61.35" PMx_abs="21.74" NOx_abs="449.84" fuel_abs="73321.03" electricity_abs="0.00"/>
    </tripinfo>
    <tripinfo id="Costa_12_0" depart="0.00" departLane="78[0]_0" departPos="0.00" departSpeed="0.00" departDelay="0.00" arrival="113.50" arrivalLane="136_0" arrivalPos="186.20" arrivalSpeed="14.73" duration="113.50" routeLength="1416.38" waitingTime="0.50" waitingCount="1" stopTime="0.00" timeLoss="16.91" rerouteNo="0" devices="tripinfo_Costa_12_0 emissions_Costa_12_0" vType="passenger1" speedFactor="1.08" vaporized="">
        <emissions CO_abs="3012.36" CO2_abs="298088.32" HC_abs="81.22" PMx_abs="30.52" NOx_abs="596.78" fuel_abs="93886.21" electricity_abs="0.00"/>
    </tripinfo>
    <tripinfo id="Costa_12_1" depart="6.50" departLane="78[0]_0" departPos="0.00" departSpeed="0.00" departDelay="4.50" arrival="116.50" arrivalLane="136_0" arrivalPos="186.20" arrivalSpeed="15.11" duration="110.00" routeLength="1416.38" waitingTime="0.00" waitingCount="0" stopTime="0.00" timeLoss="14.04" rerouteNo="0" devices="tripinfo_Costa_12_1 emissions_Costa_12_1" vType="passenger2b" speedFactor="1.09" vaporized="">
        <emissions CO_abs="2854.87" CO2_abs="287152.08" HC_abs="77.00" PMx_abs="29.50" NOx_abs="574.72" fuel_abs="90441.72" electricity_abs="0.00"/>
    </tripinfo>
    <tripinfo id="Audinot_7_0" depart="0.00" departLane="131_0" departPos="0.00" departSpeed="0.00" departDelay="0.00" arrival="123.50" arrivalLane="209_0" arrivalPos="395.59" arrivalSpeed="13.50" duration="123.50" routeLength="873.23" waitingTime="46.50" waitingCount="1" stopTime="0.00" timeLoss="57.32" rerouteNo="0" devices="tripinfo_Audinot_7_0 emissions_Audinot_7_0" vType="passenger4" speedFactor="0.98" vaporized="">
        <emissions CO_abs="1634.66" CO2_abs="199878.91" HC_abs="59.92" PMx_abs="16.50" NOx_abs="366.46" fuel_abs="62954.06" electricity_abs="0.00"/>
    </tripinfo>
    <tripinfo id="Costa_3_21" depart="54.50" departLane="78[0]_0" departPos="0.00" departSpeed="0.00" departDelay="0.50" arrival="125.00" arrivalLane="14_0" arrivalPos="77.26" arrivalSpeed="15.63" duration="70.50" routeLength="850.23" waitingTime="0.00" waitingCount="0" stopTime="0.00" timeLoss="15.14" rerouteNo="0" devices="tripinfo_Costa_3_21 emissions_Costa_3_21" vType="passenger1" speedFactor="1.13" vaporized="">
        <emissions CO_abs="1537.12" CO2_abs="165947.64" HC_abs="44.00" PMx_abs="16.25" NOx_abs="325.98" fuel_abs="52267.04" electricity_abs="0.00"/>
    </tripinfo>
    <tripinfo id="Costa_12_3" depart="11.50" departLane="78[0]_0" departPos="0.00" departSpeed="0.00" departDelay="4.50" arrival="126.50" arrivalLane="136_0" arrivalPos="186.20" arrivalSpeed="13.43" duration="115.00" routeLength="1416.38" waitingTime="0.00" waitingCount="0" stopTime="0.00" timeLoss="11.01" rerouteNo="0" devices="tripinfo_Costa_12_3 emissions_Costa_12_3" vType="passenger1" speedFactor="1.01" vaporized="">
        <emissions CO_abs="2348.54" CO2_abs="272273.49" HC_abs="69.96" PMx_abs="26.16" NOx_abs="530.39" fuel_abs="85755.54" electricity_abs="0.00"/>
    </tripinfo>
    <tripinfo id="Costa_12_7" depart="18.00" departLane="78[0]_0" departPos="0.00" departSpeed="0.00" departDelay="0.00" arrival="128.50" arrivalLane="136_0" arrivalPos="186.20" arrivalSpeed="14.96" duration="110.50" routeLength="1416.38" waitingTime="0.00" waitingCount="0" stopTime="0.00" timeLoss="15.90" rerouteNo="0" devices="tripinfo_Costa_12_7 emissions_Costa_12_7" vType="passenger5" speedFactor="1.10" vaporized="">
        <emissions CO_abs="2553.55" CO2_abs="270264.48" HC_abs="71.82" PMx_abs="26.17" NOx_abs="533.78" fuel_abs="85122.78" electricity_abs="0.00"/>
    </tripinfo>
    <tripinfo id="Costa_12_11" depart="28.00" departLane="78[0]_0" departPos="0.00" departSpeed="0.00" departDelay="0.00" arrival="138.50" arrivalLane="136_0" arrivalPos="186.20" arrivalSpeed="14.34" duration="110.50" routeLength="1416.38" waitingTime="0.00" waitingCount="0" stopTime="0.00" timeLoss="14.04" rerouteNo="0" devices="tripinfo_Costa_12_11 emissions_Costa_12_11" vType="passenger2a" speedFactor="1.08" vaporized="">
        <emissions CO_abs="3079.58" CO2_abs="287351.61" HC_abs="79.19" PMx_abs="30.99" NOx_abs="583.36" fuel_abs="90504.56" electricity_abs="0.00"/>
    </tripinfo>
    <tripinfo id="Turati_3_2" depart="69.00" departLane="195_0" departPos="0.00" departSpeed="0.00" departDelay="0.00" arrival="145.50" arrivalLane="14_0" arrivalPos="77.26" arrivalSpeed="13.40" duration="76.50" routeLength="947.57" waitingTime="0.00" waitingCount="0" stopTime="0.00" timeLoss="7.50" rerouteNo="0" devices="tripinfo_Turati_3_2 emissions_Turati_3_2" vType="ignoring1" speedFactor="1.00" vaporized="">
        <emissions CO_abs="1492.90" CO2_abs="176486.84" HC_abs="45.16" PMx_abs="16.51" NOx_abs="342.06" fuel_abs="55586.48" electricity_abs="0.00"/>
    </tripinfo>
    <tripinfo id="Pepoli_3_0" depart="0.00" departLane="210_2" departPos="0.00" departSpeed="0.00" departDelay="0.00" arrival="152.50" arrivalLane="14_0" arrivalPos="77.26" arrivalSpeed="13.19" duration="152.50" routeLength="1941.55" waitingTime="0.00" waitingCount="0" stopTime="0.00" timeLoss="10.71" rerouteNo="0" devices="tripinfo_Pepoli_3_0 emissions_Pepoli_3_0" vType="ignoring2b" speedFactor="1.00" vaporized="">
        <emissions CO_abs="2723.85" CO2_abs="338250.82" HC_abs="84.48" PMx_abs="31.25" NOx_abs="652.39" fuel_abs="106535.84" electricity_abs="0.00"/>
    </tripinfo>
    <tripinfo id="Pepoli_8_28" depart="48.00" departLane="210_0" departPos="0.00" departSpeed="0.00" departDelay="0.00" arrival="152.50" arrivalLane="134b_0" arrivalPos="156.17" arrivalSpeed="15.02" duration="104.50" routeLength="692.71" waitingTime="41.50" waitingCount="1" stopTime="0.00" timeLoss="59.22" rerouteNo="0" devices="tripinfo_Pepoli_8_28 emissions_Pepoli_8_28" vType="passenger3" speedFactor="1.13" vaporized="">
        <emissions CO_abs="1695.40" CO2_abs="169294.41" HC_abs="54.64" PMx_abs="15.31" NOx_abs="321.05" fuel_abs="53321.13" electricity_abs="0.00"/>
    </tripinfo>
    <tripinfo id="Pepoli_3_2" depart="3.00" departLane="210_2" departPos="0.00" departSpeed="0.00" departDelay="0.00" arrival="155.50" arrivalLane="14_0" arrivalPos="77.26" arrivalSpeed="13.48" duration="152.50" routeLength="1941.55" waitingTime="0.00" waitingCount="0" stopTime="0.00" timeLoss="10.23" rerouteNo="0" devices="tripinfo_Pepoli_3_2 emissions_Pepoli_3_2" vType="ignoring1" speedFactor="1.00" vaporized="">
        <emissions CO_abs="2489.12" CO2_abs="327304.79" HC_abs="80.35" PMx_abs="29.49" NOx_abs="626.17" fuel_abs="103088.27" electricity_abs="0.00"/>
    </tripinfo>
    <tripinfo id="Silvani_11_9" depart="21.00" departLane="203[0]_0" departPos="0.00" departSpeed="0.00" departDelay="0.00" arrival="156.00" arrivalLane="114_2" arrivalPos="692.70" arrivalSpeed="15.87" duration="135.00" routeLength="1114.25" waitingTime="44.00" waitingCount="1" stopTime="0.00" timeLoss="64.70" rerouteNo="0" devices="tripinfo_Silvani_11_9 emissions_Silvani_11_9" vType="passenger4" speedFactor="1.15" vaporized="">
        <emissions CO_abs="2120.72" CO2_abs="233167.91" HC_abs="69.43" PMx_abs="20.54" NOx_abs="440.88" fuel_abs="73438.82" electricity_abs="0.00"/>
    </tripinfo>
    <tripinfo id="Togliatti_12_15" depart="21.00" departLane="85_2" departPos="0.00" departSpeed="0.00" departDelay="0.00" arrival="157.00" arrivalLane="136_0" arrivalPos="186.20" arrivalSpeed="12.49" duration="136.00" routeLength="909.95" waitingTime="53.00" waitingCount="1" stopTime="0.00" timeLoss="64.27" rerouteNo="0" devices="tripinfo_Togliatti_12_15 emissions_Togliatti_12_15" vType="passenger3" speedFactor="0.94" vaporized="">
        <emissions CO_abs="2131.21" CO2_abs="213431.38" HC_abs="68.80" PMx_abs="19.49" NOx_abs="404.29" fuel_abs="67222.54" electricity_abs="0.00"/>
    </tripinfo>
    <tripinfo id="bus_13_0" depart="0.00" departLane="55_0" departPos="0.00" departSpeed="0.00" departDelay="0.00" arrival="157.50" arrivalLane="114_1" arrivalPos="692.70" arrivalSpeed="13.68" duration="157.50" routeLength="1058.08" waitingTime="21.50" waitingCount="1" stopTime="40.00" timeLoss="28.28" rerouteNo="0" devices="tripinfo_bus_13_0 emissions_bus_13_0" vType="bus" speedFactor="1.00" vaporized="">
        <emissions CO_abs="2099.02" CO2_abs="1925779.29" HC_abs="750.23" PMx_abs="250.09" NOx_abs="15873.10" fuel_abs="606544.52" electricity_abs="0.00"/>
    </tripinfo>
    <tripinfo id="bus_81_0" depart="4.00" departLane="55_0" departPos="0.00" departSpeed="0.00" departDelay="4.00" arrival="157.50" arrivalLane="114_0" arrivalPos="692.70" arrivalSpeed="13.52" duration="153.50" routeLength="1058.08" waitingTime="13.50" waitingCount="2" stopTime="40.00" timeLoss="24.07" rerouteNo="0" devices="tripinfo_bus_81_0 emissions_bus_81_0" vType="bus" speedFactor="1.00" vaporized="">
        <emissions CO_abs="2046.19" CO2_abs="1940445.89" HC_abs="740.11" PMx_abs="248.26" NOx_abs="15830.79" fuel_abs="611163.92" electricity_abs="0.00"/>
    </tripinfo>
    <tripinfo id="Togliatti_12_24" depart="34.00" departLane="85_2" departPos="0.00" departSpeed="0.00" departDelay="0.00" arrival="159.00" arrivalLane="136_0" arrivalPos="186.20" arrivalSpeed="12.73" duration="125.00" routeLength="909.95" waitingTime="39.00" waitingCount="1" stopTime="0.00" timeLoss="54.56" rerouteNo="0" devices="tripinfo_Togliatti_12_24 emissions_Togliatti_12_24" vType="passenger1" speedFactor="0.95" vaporized="">
        <emissions CO_abs="2082.61" CO2_abs="210727.43" HC_abs="65.50" PMx_abs="19.70" NOx_abs="402.82" fuel_abs="66370.90" electricity_abs="0.00"/>
    </tripinfo>
    <tripinfo id="Silvani_11_1" depart="2.50" departLane="203[0]_0" departPos="0.00" departSpeed="0.00" departDelay="0.50" arrival="160.50" arrivalLane="114_0" arrivalPos="692.70" arrivalSpeed="12.26" duration="158.00" routeLength="1114.25" waitingTime="56.00" waitingCount="1" stopTime="0.00" timeLoss="70.80" rerouteNo="0" devices="tripinfo_Silvani_11_1 emissions_Silvani_11_1" vType="passenger2b" speedFactor="0.92" vaporized="">
        <emissions CO_abs="1796.11" CO2_abs="225783.83" HC_abs="68.07" PMx_abs="18.19" NOx_abs="410.01" fuel_abs="71113.09" electricity_abs="0.00"/>
    </tripinfo>
    <tripinfo id="Togliatti_12_48" depart="68.00" departLane="85_2" departPos="0.00" departSpeed="0.00" departDelay="0.00" arrival="160.50" arrivalLane="136_0" arrivalPos="186.20" arrivalSpeed="14.14" duration="92.50" routeLength="909.95" waitingTime="8.00" waitingCount="1" stopTime="0.00" timeLoss="28.11" rerouteNo="0" devices="tripinfo_Togliatti_12_48 emissions_Togliatti_12_48" vType="passenger2a" speedFactor="1.04" vaporized="">
        <emissions CO_abs="2266.45" CO2_abs="202459.21" HC_abs="60.10" PMx_abs="21.57" NOx_abs="408.38" fuel_abs="63766.74" electricity_abs="0.00"/>
    </tripinfo>
    <tripinfo id="Silvani_11_13" depart="30.50" departLane="203[0]_0" departPos="0.00" departSpeed="0.00" departDelay="0.50" arrival="161.00" arrivalLane="114_2" arrivalPos="692.70" arrivalSpeed="14.62" duration="130.50" routeLength="1114.25" waitingTime="37.50" waitingCount="1" stopTime="0.00" timeLoss="53.92" rerouteNo="0" devices="tripinfo_Silvani_11_13 emissions_Silvani_11_13" vType="passenger1" speedFactor="1.06" vaporized="">
        <emissions CO_abs="1678.51" CO2_abs="220608.17" HC_abs="61.72" PMx_abs="18.08" NOx_abs="406.46" fuel_abs="69482.99" electricity_abs="0.00"/>
    </tripinfo>
    <tripinfo id="Pepoli_10_10" depart="17.00" departLane="210_0" departPos="0.00" departSpeed="0.00" departDelay="0.00" arrival="161.50" arrivalLane="204[1][1]_1" arrivalPos="435.51" arrivalSpeed="16.08" duration="144.50" routeLength="1470.65" waitingTime="30.50" waitingCount="1" stopTime="0.00" timeLoss="53.84" rerouteNo="0" devices="tripinfo_Pepoli_10_10 emissions_Pepoli_10_10" vType="passenger2a" speedFactor="1.17" vaporized="">
        <emissions CO_abs="2799.61" CO2_abs="288032.86" HC_abs="82.78" PMx_abs="27.24" NOx_abs="561.20" fuel_abs="90719.13" electricity_abs="0.00"/>
    </tripinfo>
    <tripinfo id="Togliatti_12_59" depart="84.00" departLane="85_2" departPos="0.00" departSpeed="0.00" departDelay="0.00" arrival="162.00" arrivalLane="136_0" arrivalPos="186.20" arrivalSpeed="15.23" duration="78.00" routeLength="909.95" waitingTime="0.00" waitingCount="0" stopTime="0.00" timeLoss="18.03" rerouteNo="0" devices="tripinfo_Togliatti_12_59 emissions_Togliatti_12_59" vType="passenger1" speedFactor="1.12" vaporized="">
        <emissions CO_abs="2071.19" CO2_abs="186402.49" HC_abs="53.45" PMx_abs="19.65" NOx_abs="378.66" fuel_abs="58709.51" electricity_abs="0.00"/>
    </tripinfo>
    <tripinfo id="Silvani_11_14" depart="33.00" departLane="203[0]_0" departPos="0.00" departSpeed="0.00" departDelay="0.00" arrival="162.50" arrivalLane="114_2" arrivalPos="692.70" arrivalSpeed="15.45" duration="129.50" routeLength="1114.25" waitingTime="36.50" waitingCount="1" stopTime="0.00" timeLoss="58.72" rerouteNo="0" devices="tripinfo_Silvani_11_14 emissions_Silvani_11_14" vType="passenger3" speedFactor="1.14" vaporized="">
        <emissions CO_abs="2293.63" CO2_abs="236534.07" HC_abs="70.78" PMx_abs="21.72" NOx_abs="455.25" fuel_abs="74499.02" electricity_abs="0.00"/>
    </tripinfo>
    <tripinfo id="Silvani_11_8" depart="18.00" departLane="203[0]_0" departPos="0.00" departSpeed="0.00" departDelay="0.00" arrival="164.00" arrivalLane="114_1" arrivalPos="692.70" arrivalSpeed="13.35" duration="146.00" routeLength="1114.25" waitingTime="45.50" waitingCount="1" stopTime="0.00" timeLoss="62.14" rerouteNo="0" devices="tripinfo_Silvani_11_8 emissions_Silvani_11_8" vType="passenger3" speedFactor="0.96" vaporized="">
        <emissions CO_abs="1984.43" CO2_abs="233716.74" HC_abs="69.49" PMx_abs="20.04" NOx_abs="434.36" fuel_abs="73611.65" electricity_abs="0.00"/>
    </tripinfo>
    <tripinfo id="XXI_Aprile_2_12" depart="42.00" departLane="13_0" departPos="0.00" departSpeed="0.00" departDelay="0.00" arrival="164.00" arrivalLane="77[1][1]_0" arrivalPos="463.98" arrivalSpeed="15.21" duration="122.00" routeLength="976.81" waitingTime="32.00" waitingCount="2" stopTime="0.00" timeLoss="56.79" rerouteNo="0" devices="tripinfo_XXI_Aprile_2_12 emissions_XXI_Aprile_2_12" vType="passenger4" speedFactor="1.10" vaporized="">
        <emissions CO_abs="2399.42" CO2_abs="234910.82" HC_abs="71.70" PMx_abs="22.36" NOx_abs="456.24" fuel_abs="73987.74" electricity_abs="0.00"/>
    </tripinfo>
    <tripinfo id="Pepoli_8_44" depart="75.00" departLane="210_0" departPos="0.00" departSpeed="0.00" departDelay="0.00" arrival="164.00" arrivalLane="134b_0" arrivalPos="156.17" arrivalSpeed="11.74" duration="89.00" routeLength="692.71" waitingTime="15.50" waitingCount="1" stopTime="0.00" timeLoss="29.07" rerouteNo="0" devices="tripinfo_Pepoli_8_44 emissions_Pepoli_8_44" vType="passenger3" speedFactor="0.85" vaporized="">
        <emissions CO_abs="1156.47" CO2_abs="140147.24" HC_abs="40.74" PMx_abs="12.13" NOx_abs="261.23" fuel_abs="44140.90" electricity_abs="0.00"/>
    </tripinfo>
    <tripinfo id="Silvani_11_0" depart="0.00" departLane="203[0]_0" departPos="0.00" departSpeed="0.00" departDelay="0.00" arrival="164.50" arrivalLane="114_0" arrivalPos="692.70" arrivalSpeed="11.35" duration="164.50" routeLength="1114.25" waitingTime="59.00" waitingCount="1" stopTime="0.00" timeLoss="67.68" rerouteNo="0" devices="tripinfo_Silvani_11_0 emissions_Silvani_11_0" vType="passenger3" speedFactor="0.83" vaporized="">
        <emissions CO_abs="1568.08" CO2_abs="224132.31" HC_abs="66.69" PMx_abs="16.88" NOx_abs="397.55" fuel_abs="70592.92" electricity_abs="0.00"/>
    </tripinfo>
    <tripinfo id="Silvani_11_12" depart="28.00" departLane="203[0]_0" departPos="0.00" departSpeed="0.00" departDelay="0.00" arrival="165.00" arrivalLane="114_2" arrivalPos="692.70" arrivalSpeed="13.08" duration="137.00" routeLength="1114.25" waitingTime="39.00" waitingCount="1" stopTime="0.00" timeLoss="54.28" rerouteNo="0" devices="tripinfo_Silvani_11_12 emissions_Silvani_11_12" vType="passenger2b" speedFactor="0.98" vaporized="">
        <emissions CO_abs="1901.12" CO2_abs="220711.37" HC_abs="65.11" PMx_abs="18.93" NOx_abs="412.74" fuel_abs="69515.47" electricity_abs="0.00"/>
    </tripinfo>
    <tripinfo id="Silvani_11_16" depart="37.00" departLane="203[0]_0" departPos="0.00" departSpeed="0.00" departDelay="0.00" arrival="165.50" arrivalLane="114_1" arrivalPos="692.70" arrivalSpeed="13.75" duration="128.50" routeLength="1114.25" waitingTime="34.00" waitingCount="1" stopTime="0.00" timeLoss="49.60" rerouteNo="0" devices="tripinfo_Silvani_11_16 emissions_Silvani_11_16" vType="passenger3" speedFactor="1.02" vaporized="">
        <emissions CO_abs="1783.65" CO2_abs="219010.64" HC_abs="62.12" PMx_abs="18.75" NOx_abs="408.29" fuel_abs="68979.82" electricity_abs="0.00"/>
    </tripinfo>
    <tripinfo id="Pepoli_8_48" depart="82.00" departLane="210_0" departPos="0.00" departSpeed="0.00" departDelay="0.00" arrival="165.50" arrivalLane="134b_0" arrivalPos="156.17" arrivalSpeed="14.77" duration="83.50" routeLength="692.71" waitingTime="13.50" waitingCount="1" stopTime="0.00" timeLoss="37.51" rerouteNo="0" devices="tripinfo_Pepoli_8_48 emissions_Pepoli_8_48" vType="passenger2a" speedFactor="1.11" vaporized="">
        <emissions CO_abs="1844.24" CO2_abs="161297.81" HC_abs="50.46" PMx_abs="16.92" NOx_abs="322.65" fuel_abs="50802.50" electricity_abs="0.00"/>
    </tripinfo>
    <tripinfo id="bus_91_0" depart="8.00" departLane="55_0" departPos="0.00" departSpeed="0.00" departDelay="8.00" arrival="166.50" arrivalLane="114_0" arrivalPos="692.70" arrivalSpeed="13.29" duration="158.50" routeLength="1058.08" waitingTime="17.50" waitingCount="1" stopTime="40.00" timeLoss="24.97" rerouteNo="0" devices="tripinfo_bus_91_0 emissions_bus_91_0" vType="bus" speedFactor="1.00" vaporized="">
        <emissions CO_abs="2087.12" CO2_abs="1896738.53" HC_abs="753.71" PMx_abs="248.94" NOx_abs="15640.00" fuel_abs="597397.83" electricity_abs="0.00"/>
    </tripinfo>
    <tripinfo id="Pepoli_8_51" depart="87.00" departLane="210_0" departPos="0.00" departSpeed="0.00" departDelay="0.00" arrival="167.00" arrivalLane="134b_0" arrivalPos="156.17" arrivalSpeed="12.76" duration="80.00" routeLength="692.71" waitingTime="9.50" waitingCount="1" stopTime="0.00" timeLoss="25.87" rerouteNo="0" devices="tripinfo_Pepoli_8_51 emissions_Pepoli_8_51" vType="passenger1" speedFactor="0.94" vaporized="">
        <emissions CO_abs="1164.78" CO2_abs="137484.96" HC_abs="38.91" PMx_abs="12.31" NOx_abs="259.81" fuel_abs="43302.39" electricity_abs="0.00"/>
    </tripinfo>
    <tripinfo id="Pepoli_10_18" depart="30.00" departLane="210_0" departPos="0.00" departSpeed="0.00" departDelay="0.00" arrival="168.00" arrivalLane="204[1][1]_1" arrivalPos="435.51" arrivalSpeed="14.10" duration="138.00" routeLength="1470.65" waitingTime="19.00" waitingCount="1" stopTime="0.00" timeLoss="37.22" rerouteNo="0" devices="tripinfo_Pepoli_10_18 emissions_Pepoli_10_18" vType="passenger1" speedFactor="1.05" vaporized="">
        <emissions CO_abs="1921.22" CO2_abs="259875.24" HC_abs="67.10" PMx_abs="22.03" NOx_abs="486.39" fuel_abs="81850.59" electricity_abs="0.00"/>
    </tripinfo>
    <tripinfo id="Silvani_11_24" depart="56.50" departLane="203[0]_0" departPos="0.00" departSpeed="0.00" departDelay="0.50" arrival="168.50" arrivalLane="114_1" arrivalPos="692.70" arrivalSpeed="14.17" duration="112.00" routeLength="1114.25" waitingTime="16.50" waitingCount="1" stopTime="0.00" timeLoss="36.04" rerouteNo="0" devices="tripinfo_Silvani_11_24 emissions_Silvani_11_24" vType="passenger1" speedFactor="1.06" vaporized="">
        <emissions CO_abs="1696.37" CO2_abs="204802.74" HC_abs="55.83" PMx_abs="18.02" NOx_abs="388.19" fuel_abs="64504.89" electricity_abs="0.00"/>
    </tripinfo>
    <tripinfo id="Pepoli_10_4" depart="6.00" departLane="210_0" departPos="0.00" departSpeed="0.00" departDelay="0.00" arrival="169.50" arrivalLane="204[1][1]_0" arrivalPos="435.51" arrivalSpeed="11.69" duration="163.50" routeLength="1470.65" waitingTime="34.00" waitingCount="1" stopTime="0.00" timeLoss="44.41" rerouteNo="0" devices="tripinfo_Pepoli_10_4 emissions_Pepoli_10_4" vType="passenger2b" speedFactor="0.89" vaporized="">
        <emissions CO_abs="1665.99" CO2_abs="256700.96" HC_abs="67.46" PMx_abs="20.36" NOx_abs="463.84" fuel_abs="80850.79" electricity_abs="0.00"/>
    </tripinfo>
    <tripinfo id="Vittorio_Veneto_1_4" depart="18.00" departLane="224[0]_0" departPos="0.00" departSpeed="0.00" departDelay="0.00" arrival="170.00" arrivalLane="86_0" arrivalPos="321.19" arrivalSpeed="13.22" duration="152.00" routeLength="1143.28" waitingTime="55.50" waitingCount="1" stopTime="0.00" timeLoss="67.71" rerouteNo="0" devices="tripinfo_Vittorio_Veneto_1_4 emissions_Vittorio_Veneto_1_4" vType="passenger1" speedFactor="1.00" vaporized="">
        <emissions CO_abs="2278.16" CO2_abs="251382.77" HC_abs="76.38" PMx_abs="22.08" NOx_abs="471.31" fuel_abs="79175.76" electricity_abs="0.00"/>
    </tripinfo>
    <tripinfo id="Silvani_11_27" depart="63.00" departLane="203[0]_0" departPos="0.00" departSpeed="0.00" departDelay="0.00" arrival="170.00" arrivalLane="114_2" arrivalPos="692.70" arrivalSpeed="14.29" duration="107.00" routeLength="1114.25" waitingTime="14.50" waitingCount="1" stopTime="0.00" timeLoss="31.54" rerouteNo="0" devices="tripinfo_Silvani_11_27 emissions_Silvani_11_27" vType="passenger2a" speedFactor="1.07" vaporized="">
        <emissions CO_abs="1924.51" CO2_abs="211808.74" HC_abs="58.73" PMx_abs="19.74" NOx_abs="409.51" fuel_abs="66711.51" electricity_abs="0.00"/>
    </tripinfo>
    <tripinfo id="Silvani_11_17" depart="40.00" departLane="203[0]_0" departPos="0.00" departSpeed="0.00" departDelay="0.00" arrival="171.50" arrivalLane="114_0" arrivalPos="692.70" arrivalSpeed="12.60" duration="131.50" routeLength="1114.25" waitingTime="31.50" waitingCount="1" stopTime="0.00" timeLoss="46.02" rerouteNo="0" devices="tripinfo_Silvani_11_17 emissions_Silvani_11_17" vType="passenger3" speedFactor="0.94" vaporized="">
        <emissions CO_abs="1826.26" CO2_abs="218739.16" HC_abs="62.74" PMx_abs="18.85" NOx_abs="408.88" fuel_abs="68894.30" electricity_abs="0.00"/>
    </tripinfo>
    <tripinfo id="Togliatti_71_2" depart="2.50" departLane="85_1" departPos="0.00" departSpeed="0.00" departDelay="0.50" arrival="172.00" arrivalLane="209_0" arrivalPos="395.59" arrivalSpeed="15.07" duration="169.50" routeLength="2025.50" waitingTime="23.50" waitingCount="1" stopTime="0.00" timeLoss="38.71" rerouteNo="0" devices="tripinfo_Togliatti_71_2 emissions_Togliatti_71_2" vType="passenger1" speedFactor="1.12" vaporized="">
        <emissions CO_abs="2819.58" CO2_abs="361596.63" HC_abs="92.23" PMx_abs="31.60" NOx_abs="687.89" fuel_abs="113888.90" electricity_abs="0.00"/>
    </tripinfo>
    <tripinfo id="Pepoli_10_11" depart="19.00" departLane="210_0" departPos="0.00" departSpeed="0.00" departDelay="1.00" arrival="172.00" arrivalLane="204[1][1]_0" arrivalPos="435.51" arrivalSpeed="12.40" duration="153.00" routeLength="1470.65" waitingTime="20.50" waitingCount="1" stopTime="0.00" timeLoss="35.06" rerouteNo="0" devices="tripinfo_Pepoli_10_11 emissions_Pepoli_10_11" vType="passenger4" speedFactor="0.90" vaporized="">
        <emissions CO_abs="1512.28" CO2_abs="245530.30" HC_abs="62.74" PMx_abs="19.07" NOx_abs="444.82" fuel_abs="77332.47" electricity_abs="0.00"/>
    </tripinfo>
    <tripinfo id="Silvani_7_4" depart="9.00" departLane="203[0]_1" departPos="0.00" departSpeed="0.00" departDelay="0.00" arrival="172.50" arrivalLane="209_2" arrivalPos="395.59" arrivalSpeed="15.60" duration="163.50" routeLength="1451.40" waitingTime="55.50" waitingCount="1" stopTime="0.00" timeLoss="72.51" rerouteNo="0" devices="tripinfo_Silvani_7_4 emissions_Silvani_7_4" vType="passenger2a" speedFactor="1.15" vaporized="">
        <emissions CO_abs="3019.24" CO2_abs="305479.63" HC_abs="91.78" PMx_abs="28.54" NOx_abs="590.20" fuel_abs="96214.19" electricity_abs="0.00"/>
    </tripinfo>
    <tripinfo id="Silvani_11_32" depart="75.50" departLane="203[0]_0" departPos="0.00" departSpeed="0.00" departDelay="0.50" arrival="172.50" arrivalLane="114_1" arrivalPos="692.70" arrivalSpeed="13.91" duration="97.00" routeLength="1114.25" waitingTime="2.50" waitingCount="1" stopTime="0.00" timeLoss="19.58" rerouteNo="0" devices="tripinfo_Silvani_11_32 emissions_Silvani_11_32" vType="passenger5" speedFactor="1.04" vaporized="">