<?xml version="1.0" encoding="UTF-8"?>

<!-- generated on 2026-02-01T00:27:47.735045+07:00 by Eclipse SUMO sumo v1_25_0+0904-59bbc76848e
<sumoConfiguration xmlns:xsi="http://www.w3.org/2001/XMLSchema-instance" xsi:noNamespaceSchemaLocation="http://sumo.dlr.de/xsd/sumoConfiguration.xsd">

    <input>
        <net-file value="maps/NJ_TurnPike/osm.net.xml.gz"/>
        <route-files value="maps/NJ_TurnPike/osm.motorcycle.trips.xml,maps/NJ_TurnPike/osm.passenger.trips.xml,maps/NJ_TurnPike/osm.truck.trips.xml"/>
        <additional-files value="maps/NJ_TurnPike/osm.poly.xml.gz,maps/NJ_TurnPike/output.add.xml"/>
    </input>

    <output>
        <tripinfo-output value="maps/NJ_TurnPike/tripinfos.xml"/>
        <statistic-output value="maps/NJ_TurnPike/stats.xml"/>
    </output>

    <processing>
        <ignore-route-errors value="true"/>
        <scale value="5.0"/>
        <tls.actuated.jam-threshold value="30"/>
    </processing>

    <routing>
        <device.rerouting.adaptation-steps value="18"/>
        <device.rerouting.adaptation-interval value="10"/>
    </routing>

    <report>
        <verbose value="true"/>
        <no-warnings value="true"/>
        <no-step-log value="true"/>
    </report>

    <emissions>
        <device.emissions.probability value="1.0"/>
    </emissions>

    <traci_server>
        <remote-port value="34559"/>
    </traci_server>

    <gui_only>
        <gui-settings-file value="maps/NJ_TurnPike/osm.view.xml"/>
        <quit-on-end value="true"/>
        <start value="true"/>
        <delay value="0"/>
    </gui_only>

</sumoConfiguration>
-->

<meandata xmlns:xsi="http://www.w3.org/2001/XMLSchema-instance" xsi:noNamespaceSchemaLocation="http://sumo.dlr.de/xsd/meandata_file.xsd">
    <interval begin="0.00" end="233.00" id="wizard_example">
        <edge id="-1017787024" sampledSeconds="0.00" departed="0" arrived="0" entered="0" left="0" laneChangedFrom="0" laneChangedTo="0"/>
        <edge id="-1053593991#0" sampledSeconds="12.92" traveltime="6.18" overlapTraveltime="6.46" density="0.42" overlapDensity="0.44" laneDensity="0.42" occupancy="0.21" waitingTime="0.00" timeLoss="0.95" speed="20.35" speedRelative="0.92" departed="0" arrived="0" entered="2" left="2" laneChangedFrom="0" laneChangedTo="0" flow="30.90"/>
        <edge id="-1053593991#2" sampledSeconds="7.85" traveltime="3.67" overlapTraveltime="3.92" density="0.53" overlapDensity="0.57" laneDensity="0.53" occupancy="0.26" waitingTime="0.00" timeLoss="2.02" speed="16.30" speedRelative="0.73" departed="0" arrived="0" entered="2" left="2" laneChangedFrom="0" laneChangedTo="0" flow="30.90"/>
        <edge id="-1053593991#3" sampledSeconds="440.03" traveltime="129.07" overlapTraveltime="139.31" density="79.04" overlapDensity="79.22" laneDensity="79.04" occupancy="39.46" waitingTime="420.00" timeLoss="435.89" speed="0.21" speedRelative="0.01" departed="3" arrived="0" entered="2" left="2" laneChangedFrom="0" laneChangedTo="0" flow="52.56"/>
        <edge id="-1099318298" sampledSeconds="0.00" departed="0" arrived="0" entered="0" left="0" laneChangedFrom="0" laneChangedTo="0"/>
        <edge id="-1118564705" sampledSeconds="0.00" departed="0" arrived="0" entered="0" left="0" laneChangedFrom="0" laneChangedTo="0"/>
        <edge id="-1118564707#0" sampledSeconds="959.94" traveltime="187.82" overlapTraveltime="199.29" density="82.78" overlapDensity="82.95" laneDensity="82.78" occupancy="41.40" waitingTime="896.00" timeLoss="940.28" speed="0.27" speedRelative="0.02" departed="5" arrived="0" entered="3" left="2" laneChangedFrom="0" laneChangedTo="0" flow="78.80"/>
        <edge id="-1118564709#0" sampledSeconds="198.85" traveltime="99.88" overlapTraveltime="138.62" density="133.33" overlapDensity="133.33" laneDensity="133.33" occupancy="82.41" waitingTime="193.00" timeLoss="197.29" speed="0.07" speedRelative="0.00" departed="0" arrived="0" entered="2" left="1" laneChangedFrom="0" laneChangedTo="0" flow="19.32"/>
        <edge id="-1118564710" sampledSeconds="0.00" departed="0" arrived="0" entered="0" left="0" laneChangedFrom="0" laneChangedTo="0"/>
        <edge id="-1119479584#0" sampledSeconds="0.00" departed="0" arrived="0" entered="0" left="0" laneChangedFrom="0" laneChangedTo="0"/>
        <edge id="-1119479584#1" sampledSeconds="0.00" departed="0" arrived="0" entered="0" left="0" laneChangedFrom="0" laneChangedTo="0"/>
        <edge id="-1119479599" sampledSeconds="0.00" departed="0" arrived="0" entered="0" left="0" laneChangedFrom="0" laneChangedTo="0"/>
        <edge id="-1119479600#0" sampledSeconds="0.00" departed="0" arrived="0" entered="0" left="0" laneChangedFrom="0" laneChangedTo="0"/>
        <edge id="-1119479600#1" sampledSeconds="0.00" departed="0" arrived="0" entered="0" left="0" laneChangedFrom="0" laneChangedTo="0"/>
        <edge id="-1119479601#0" sampledSeconds="0.00" departed="0" arrived="0" entered="0" left="0" laneChangedFrom="0" laneChangedTo="0"/>
        <edge id="-1119479602#0" sampledSeconds="0.00" departed="0" arrived="0" entered="0" left="0" laneChangedFrom="0" laneChangedTo="0"/>
        <edge id="-1119479603" sampledSeconds="0.00" departed="0" arrived="0" entered="0" left="0" laneChangedFrom="0" laneChangedTo="0"/>
        <edge id="-1127661198" sampledSeconds="0.00" departed="0" arrived="0" entered="0" left="0" laneChangedFrom="0" laneChangedTo="0"/>
        <edge id="-1127661200" sampledSeconds="0.00" departed="0" arrived="0" entered="0" left="0" laneChangedFrom="0" laneChangedTo="0"/>
        <edge id="-1127661203#0" sampledSeconds="0.00" departed="0" arrived="0" entered="0" left="0" laneChangedFrom="0" laneChangedTo="0"/>
        <edge id="-1127661203#1" sampledSeconds="0.00" departed="0" arrived="0" entered="0" left="0" laneChangedFrom="0" laneChangedTo="0"/>
        <edge id="-1127661203#2" sampledSeconds="0.00" departed="0" arrived="0" entered="0" left="0" laneChangedFrom="0" laneChangedTo="0"/>
        <edge id="-11651841#0" sampledSeconds="0.00" departed="0" arrived="0" entered="0" left="0" laneChangedFrom="0" laneChangedTo="0"/>
        <edge id="-11651841#2" sampledSeconds="590.57" traveltime="86.69" overlapTraveltime="93.46" density="51.96" overlapDensity="52.74" laneDensity="51.96" occupancy="36.40" waitingTime="509.00" timeLoss="562.05" speed="0.59" speedRelative="0.04" departed="10" arrived="0" entered="0" left="5" laneChangedFrom="0" laneChangedTo="0" flow="103.71"/>
        <edge id="-11655766#0" sampledSeconds="0.00" departed="0" arrived="0" entered="0" left="0" laneChangedFrom="0" laneChangedTo="0"/>
        <edge id="-11655766#1" sampledSeconds="806.30" traveltime="209.07" overlapTraveltime="222.27" density="56.30" overlapDensity="56.51" laneDensity="56.30" occupancy="28.22" waitingTime="743.00" timeLoss="788.20" speed="0.30" speedRelative="0.02" departed="5" arrived="0" entered="0" left="1" laneChangedFrom="0" laneChangedTo="0" flow="59.36"/>
        <edge id="-11655766#2" sampledSeconds="0.00" departed="0" arrived="0" entered="0" left="0" laneChangedFrom="0" laneChangedTo="0"/>
        <edge id="-11655766#3" sampledSeconds="179.28" traveltime="20.18" overlapTraveltime="23.06" density="10.97" overlapDensity="12.19" laneDensity="10.97" occupancy="5.68" waitingTime="60.00" timeLoss="138.28" speed="2.95" speedRelative="0.21" departed="10" arrived="0" entered="0" left="5" laneChangedFrom="0" laneChangedTo="0" flow="123.53"/>
        <edge id="-11655766#4" sampledSeconds="1281.53" traveltime="92.92" overlapTraveltime="103.59" density="82.94" overlapDensity="90.43" laneDensity="82.94" occupancy="41.86" waitingTime="998.00" timeLoss="1218.47" speed="0.64" speedRelative="0.05" departed="10" arrived="0" entered="8" left="9" laneChangedFrom="0" laneChangedTo="0" flow="195.44"/>
        <edge id="-11655766#5" sampledSeconds="577.84" traveltime="81.02" overlapTraveltime="85.33" density="39.76" overlapDensity="40.02" laneDensity="39.76" occupancy="19.16" waitingTime="423.00" timeLoss="544.34" speed="0.79" speedRelative="0.06" departed="5" arrived="0" entered="7" left="3" laneChangedFrom="0" laneChangedTo="0" flow="109.48"/>
        <edge id="-11655844#0" sampledSeconds="1392.10" traveltime="213.46" overlapTraveltime="224.58" density="83.70" overlapDensity="83.83" laneDensity="83.70" occupancy="49.21" waitingTime="1320.00" timeLoss="1358.37" speed="0.34" speedRelative="0.02" departed="0" arrived="0" entered="10" left="2" laneChangedFrom="0" laneChangedTo="0" flow="100.60"/>
        <edge id="-11655844#1" sampledSeconds="3800.55" traveltime="156.79" overlapTraveltime="158.76" density="73.37" overlapDensity="73.46" laneDensity="73.37" occupancy="37.07" waitingTime="3152.00" timeLoss="3403.46" speed="1.43" speedRelative="0.10" departed="39" arrived="0" entered="0" left="10" laneChangedFrom="0" laneChangedTo="0" flow="374.08"/>
        <edge id="-11656313" sampledSeconds="1053.01" traveltime="46.75" overlapTraveltime="47.79" density="42.86" overlapDensity="43.25" laneDensity="42.86" occupancy="21.38" waitingTime="746.00" timeLoss="878.45" speed="2.29" speedRelative="0.16" departed="20" arrived="0" entered="10" left="16" laneChangedFrom="0" laneChangedTo="0" flow="344.89"/>
        <edge id="-11656514#0" sampledSeconds="7.94" traveltime="7.58" overlapTraveltime="7.94" density="0.34" overlapDensity="0.36" laneDensity="0.34" occupancy="0.17" waitingTime="0.00" timeLoss="1.30" speed="12.58" speedRelative="0.91" departed="0" arrived="1" entered="1" left="0" laneChangedFrom="0" laneChangedTo="0" flow="15.45"/>
        <edge id="-11656514#1" sampledSeconds="199.76" traveltime="19.27" overlapTraveltime="25.72" density="133.33" overlapDensity="133.33" laneDensity="133.33" occupancy="70.98" waitingTime="186.00" timeLoss="191.50" speed="0.30" speedRelative="0.02" departed="0" arrived="0" entered="10" left="9" laneChangedFrom="0" laneChangedTo="0" flow="16.19"/>
        <edge id="-11656514#2" sampledSeconds="3103.77" traveltime="173.57" overlapTraveltime="188.18" density="104.63" overlapDensity="111.93" laneDensity="104.63" occupancy="54.09" waitingTime="2746.00" timeLoss="2955.23" speed="0.66" speedRelative="0.05" departed="25" arrived="0" entered="0" left="10" laneChangedFrom="0" laneChangedTo="0" flow="258.28"/>
        <edge id="-11656715" sampledSeconds="3137.65" traveltime="83.44" overlapTraveltime="88.37" density="64.81" overlapDensity="68.00" laneDensity="64.81" occupancy="33.14" waitingTime="2291.00" timeLoss="2610.53" speed="2.30" speedRelative="0.17" departed="0" arrived="0" entered="49" left="23" laneChangedFrom="0" laneChangedTo="0" flow="553.77"/>
        <edge id="-11656843" sampledSeconds="145.55" traveltime="16.88" overlapTraveltime="17.64" density="3.39" overlapDensity="3.50" laneDensity="3.39" occupancy="1.68" waitingTime="5.00" timeLoss="36.54" speed="10.39" speedRelative="0.75" departed="0" arrived="0" entered="10" left="5" laneChangedFrom="0" laneChangedTo="0" flow="128.91"/>
        <edge id="-11657110" sampledSeconds="331.00" traveltime="70.92" overlapTraveltime="72.08" density="4.68" overlapDensity="4.68" laneDensity="4.68" occupancy="2.34" waitingTime="192.00" timeLoss="230.87" speed="4.28" speedRelative="0.31" departed="5" arrived="0" entered="0" left="0" laneChangedFrom="0" laneChangedTo="0" flow="72.12"/>
        <edge id="-11657372" sampledSeconds="931.44" traveltime="28.84" overlapTraveltime="32.94" density="63.98" overlapDensity="73.63" laneDensity="63.98" occupancy="36.63" waitingTime="681.00" timeLoss="809.08" speed="1.80" speedRelative="0.13" departed="29" arrived="0" entered="5" left="28" laneChangedFrom="0" laneChangedTo="0" flow="433.57"/>
        <edge id="-11657904#0" sampledSeconds="0.00" departed="0" arrived="0" entered="0" left="0" laneChangedFrom="0" laneChangedTo="0"/>
        <edge id="-11657904#1" sampledSeconds="1280.00" traveltime="115.39" overlapTraveltime="118.35" density="36.99" overlapDensity="37.01" laneDensity="36.99" occupancy="14.53" waitingTime="1093.00" timeLoss="1165.10" speed="1.29" speedRelative="0.09" departed="5" arrived="0" entered="10" left="1" laneChangedFrom="0" laneChangedTo="0" flow="171.31"/>
        <edge id="-11658557#0" sampledSeconds="159.89" traveltime="8.05" overlapTraveltime="9.35" density="133.33" overlapDensity="133.33" laneDensity="133.33" occupancy="58.70" waitingTime="140.00" timeLoss="144.13" speed="0.61" speedRelative="0.04" departed="0" arrived="0" entered="18" left="17" laneChangedFrom="0" laneChangedTo="0" flow="41.73"/>
        <edge id="-11658557#1" sampledSeconds="2570.86" traveltime="101.63" overlapTraveltime="103.50" density="88.26" overlapDensity="88.89" laneDensity="88.26" occupancy="44.28" waitingTime="2021.00" timeLoss="2324.46" speed="1.25" speedRelative="0.09" departed="34" arrived="0" entered="0" left="18" laneChangedFrom="0" laneChangedTo="0" flow="388.05"/>
        <edge id="-11659053#0" sampledSeconds="671.75" traveltime="93.12" overlapTraveltime="97.80" density="44.86" overlapDensity="45.23" laneDensity="44.86" occupancy="25.78" waitingTime="552.00" timeLoss="636.86" speed="0.71" speedRelative="0.05" departed="0" arrived="0" entered="10" left="3" laneChangedFrom="0" laneChangedTo="0" flow="110.55"/>
        <edge id="-11659053#1" sampledSeconds="411.13" traveltime="47.27" overlapTraveltime="50.78" density="29.01" overlapDensity="29.37" laneDensity="29.01" occupancy="19.60" waitingTime="336.00" timeLoss="368.19" speed="1.32" speedRelative="0.09" departed="0" arrived="0" entered="11" left="5" laneChangedFrom="0" laneChangedTo="0" flow="132.77"/>
        <edge id="-11659170" sampledSeconds="1195.07" traveltime="151.80" overlapTraveltime="156.92" density="34.70" overlapDensity="34.70" laneDensity="34.70" occupancy="17.28" waitingTime="1061.00" timeLoss="1112.43" speed="0.97" speedRelative="0.07" departed="8" arrived="0" entered="5" left="0" laneChangedFrom="0" laneChangedTo="0" flow="121.64"/>
        <edge id="-11659232" sampledSeconds="3252.35" traveltime="213.48" overlapTraveltime="218.61" density="70.46" overlapDensity="70.52" laneDensity="70.46" occupancy="37.05" waitingTime="2879.00" timeLoss="3038.59" speed="0.93" speedRelative="0.07" departed="3" arrived="0" entered="24" left="2" laneChangedFrom="0" laneChangedTo="0" flow="235.21"/>
        <edge id="-11659464#0" sampledSeconds="0.00" departed="0" arrived="0" entered="0" left="0" laneChangedFrom="0" laneChangedTo="0"/>
        <edge id="-11659464#1" sampledSeconds="0.00" departed="0" arrived="0" entered="0" left="0" laneChangedFrom="0" laneChangedTo="0"/>
        <edge id="-11659994#1" sampledSeconds="639.65" traveltime="64.45" overlapTraveltime="66.19" density="10.78" overlapDensity="10.99" laneDensity="10.78" occupancy="7.71" waitingTime="367.00" timeLoss="460.93" speed="3.88" speedRelative="0.28" departed="5" arrived="0" entered="5" left="7" laneChangedFrom="0" laneChangedTo="0" flow="150.48"/>
        <edge id="-11659994#2" sampledSeconds="9.94" traveltime="1.00" overlapTraveltime="1.99" density="3.47" overlapDensity="6.89" laneDensity="3.47" occupancy="2.26" waitingTime="0.00" timeLoss="5.19" speed="6.69" speedRelative="0.48" departed="0" arrived="0" entered="5" left="5" laneChangedFrom="0" laneChangedTo="0" flow="77.25"/>
        <edge id="-11660605" sampledSeconds="0.00" departed="0" arrived="0" entered="0" left="0" laneChangedFrom="0" laneChangedTo="0"/>
        <edge id="-11661643#0" sampledSeconds="0.00" departed="0" arrived="0" entered="0" left="0" laneChangedFrom="0" laneChangedTo="0"/>
        <edge id="-11661643#1" sampledSeconds="0.00" departed="0" arrived="0" entered="0" left="0" laneChangedFrom="0" laneChangedTo="0"/>
        <edge id="-11661643#2" sampledSeconds="445.00" traveltime="118.02" overlapTraveltime="136.71" density="28.03" overlapDensity="30.27" laneDensity="28.03" occupancy="14.84" waitingTime="386.00" timeLoss="428.24" speed="0.50" speedRelative="0.04" departed="5" arrived="0" entered="0" left="1" laneChangedFrom="0" laneChangedTo="0" flow="53.95"/>
        <edge id="-11661643#3" sampledSeconds="740.58" traveltime="198.32" overlapTraveltime="224.58" density="46.96" overlapDensity="49.61" laneDensity="46.96" occupancy="33.13" waitingTime="636.00" timeLoss="723.07" speed="0.32" speedRelative="0.02" departed="7" arrived="0" entered="0" left="1" laneChangedFrom="0" laneChangedTo="0" flow="54.62"/>
        <edge id="-11661655#0" sampledSeconds="1365.02" traveltime="307.76" overlapTraveltime="334.21" density="95.17" overlapDensity="95.17" laneDensity="95.17" occupancy="50.27" waitingTime="1322.00" timeLoss="1345.14" speed="0.20" speedRelative="0.01" departed="1" arrived="0" entered="7" left="0" laneChangedFrom="0" laneChangedTo="0" flow="68.53"/>
        <edge id="-11661655#1" sampledSeconds="1262.42" traveltime="132.01" overlapTraveltime="137.00" density="85.64" overlapDensity="85.77" laneDensity="85.64" occupancy="42.76" waitingTime="1194.00" timeLoss="1217.32" speed="0.50" speedRelative="0.04" departed="0" arrived="0" entered="13" left="5" laneChangedFrom="0" laneChangedTo="0" flow="147.53"/>
        <edge id="-11661655#2" sampledSeconds="1293.41" traveltime="72.25" overlapTraveltime="73.92" density="82.58" overlapDensity="82.90" laneDensity="82.58" occupancy="40.94" waitingTime="1134.00" timeLoss="1203.02" speed="0.97" speedRelative="0.07" departed="0" arrived="0" entered="22" left="13" laneChangedFrom="0" laneChangedTo="0" flow="275.53"/>
        <edge id="-11661785#0" sampledSeconds="1282.47" traveltime="138.06" overlapTraveltime="144.91" density="94.12" overlapDensity="94.57" laneDensity="94.12" occupancy="51.02" waitingTime="1137.00" timeLoss="1237.82" speed="0.44" speedRelative="0.03" departed="0" arrived="0" entered="12" left="5" laneChangedFrom="0" laneChangedTo="0" flow="142.84"/>
        <edge id="-11661785#1" sampledSeconds="2330.85" traveltime="119.00" overlapTraveltime="121.90" density="76.22" overlapDensity="76.48" laneDensity="76.22" occupancy="44.72" waitingTime="1898.00" timeLoss="2136.42" speed="1.12" speedRelative="0.08" departed="0" arrived="0" entered="28" left="12" laneChangedFrom="0" laneChangedTo="0" flow="301.58"/>
        <edge id="-11661792#0" sampledSeconds="3387.38" traveltime="295.61" overlapTraveltime="304.53" density="104.17" overlapDensity="104.28" laneDensity="104.17" occupancy="51.56" waitingTime="2922.00" timeLoss="3267.30" speed="0.47" speedRelative="0.03" departed="2" arrived="0" entered="18" left="2" laneChangedFrom="0" laneChangedTo="0" flow="176.86"/>
        <edge id="-11661792#1" sampledSeconds="4700.37" traveltime="156.17" overlapTraveltime="158.14" density="90.87" overlapDensity="91.08" laneDensity="90.87" occupancy="48.34" waitingTime="3857.00" timeLoss="4208.22" speed="1.43" speedRelative="0.10" departed="44" arrived="0" entered="0" left="18" laneChangedFrom="0" laneChangedTo="0" flow="463.98"/>
        <edge id="-11661832#0" sampledSeconds="1569.99" traveltime="134.32" overlapTraveltime="138.69" density="82.79" overlapDensity="83.08" laneDensity="82.79" occupancy="41.37" waitingTime="1370.00" timeLoss="1499.00" speed="0.62" speedRelative="0.04" departed="4" arrived="0" entered="13" left="6" laneChangedFrom="0" laneChangedTo="0" flow="179.97"/>
        <edge id="-11661832#1" sampledSeconds="378.19" traveltime="25.07" overlapTraveltime="26.09" density="72.80" overlapDensity="74.01" laneDensity="72.80" occupancy="36.28" waitingTime="325.00" timeLoss="350.32" speed="1.03" speedRelative="0.07" departed="0" arrived="0" entered="16" left="13" laneChangedFrom="0" laneChangedTo="0" flow="229.24"/>
        <edge id="-11662458#0" sampledSeconds="0.00" departed="0" arrived="0" entered="0" left="0" laneChangedFrom="0" laneChangedTo="0"/>
        <edge id="-11662458#1" sampledSeconds="200.96" traveltime="20.15" overlapTraveltime="19.07" density="133.33" overlapDensity="133.33" laneDensity="133.33" occupancy="41.12" waitingTime="184.00" timeLoss="190.39" speed="0.36" speedRelative="0.03" departed="0" arrived="0" entered="10" left="9" laneChangedFrom="0" laneChangedTo="0" flow="44.07"/>
        <edge id="-11662458#2" sampledSeconds="2469.34" traveltime="150.61" overlapTraveltime="154.27" density="82.23" overlapDensity="82.64" laneDensity="82.23" occupancy="51.58" waitingTime="2093.00" timeLoss="2313.65" speed="0.87" speedRelative="0.06" departed="24" arrived="0" entered="0" left="10" laneChangedFrom="0" laneChangedTo="0" flow="252.09"/>
        <edge id="-11662601#0" sampledSeconds="107.70" traveltime="4.25" overlapTraveltime="4.62" density="10.10" overlapDensity="10.92" laneDensity="10.10" occupancy="4.51" waitingTime="0.00" timeLoss="26.68" speed="10.14" speedRelative="0.73" departed="5" arrived="0" entered="19" left="24" laneChangedFrom="0" laneChangedTo="0" flow="361.50"/>
        <edge id="-11662601#1" sampledSeconds="16.10" traveltime="2.82" overlapTraveltime="3.22" density="2.84" overlapDensity="3.25" laneDensity="2.84" occupancy="0.65" waitingTime="1.00" timeLoss="7.34" speed="7.29" speedRelative="0.52" departed="0" arrived="0" entered="5" left="5" laneChangedFrom="0" laneChangedTo="0" flow="77.25"/>
        <edge id="-11662601#2" sampledSeconds="11.03" traveltime="2.01" overlapTraveltime="2.21" density="2.18" overlapDensity="2.39" laneDensity="2.18" occupancy="0.46" waitingTime="0.00" timeLoss="2.82" speed="9.97" speedRelative="0.72" departed="0" arrived="0" entered="5" left="5" laneChangedFrom="0" laneChangedTo="0" flow="77.25"/>
        <edge id="-11662601#3" sampledSeconds="0.00" departed="0" arrived="0" entered="0" left="0" laneChangedFrom="0" laneChangedTo="0"/>
        <edge id="-11664514#0" sampledSeconds="491.55" traveltime="12.36" overlapTraveltime="18.19" density="80.33" overlapDensity="114.78" laneDensity="80.33" occupancy="51.30" waitingTime="364.00" timeLoss="444.62" speed="1.32" speedRelative="0.10" departed="0" arrived="0" entered="29" left="27" laneChangedFrom="0" laneChangedTo="0" flow="429.88"/>
        <edge id="-11664514#1" sampledSeconds="1560.50" traveltime="217.93" overlapTraveltime="228.62" density="108.55" overlapDensity="109.22" laneDensity="108.55" occupancy="60.65" waitingTime="1359.00" timeLoss="1527.26" speed="0.29" speedRelative="0.02" departed="0" arrived="0" entered="11" left="3" laneChangedFrom="0" laneChangedTo="0" flow="109.95"/>
        <edge id="-11664514#10" sampledSeconds="98.44" traveltime="9.44" overlapTraveltime="9.84" density="4.30" overlapDensity="4.49" laneDensity="4.30" occupancy="2.04" waitingTime="0.00" timeLoss="25.82" speed="10.07" speedRelative="0.72" departed="0" arrived="0" entered="10" left="10" laneChangedFrom="0" laneChangedTo="0" flow="154.51"/>
        <edge id="-11664514#2" sampledSeconds="1745.01" traveltime="310.09" overlapTraveltime="330.71" density="120.90" overlapDensity="121.01" laneDensity="120.90" occupancy="56.35" waitingTime="1645.00" timeLoss="1719.95" speed="0.20" speedRelative="0.01" departed="0" arrived="0" entered="10" left="1" laneChangedFrom="0" laneChangedTo="0" flow="86.87"/>
        <edge id="-11664514#3" sampledSeconds="1422.92" traveltime="176.81" overlapTraveltime="187.55" density="97.81" overlapDensity="98.18" laneDensity="97.81" occupancy="60.20" waitingTime="1293.00" timeLoss="1385.93" speed="0.36" speedRelative="0.03" departed="0" arrived="0" entered="11" left="4" laneChangedFrom="0" laneChangedTo="0" flow="123.87"/>
        <edge id="-11664514#4" sampledSeconds="1512.39" traveltime="229.17" overlapTraveltime="242.38" density="104.93" overlapDensity="105.18" laneDensity="104.93" occupancy="52.45" waitingTime="1426.00" timeLoss="1480.05" speed="0.28" speedRelative="0.02" departed="0" arrived="0" entered="10" left="2" laneChangedFrom="0" laneChangedTo="0" flow="101.72"/>
        <edge id="-11664514#5" sampledSeconds="1417.27" traveltime="97.68" overlapTraveltime="100.32" density="98.37" overlapDensity="98.68" laneDensity="98.37" occupancy="49.07" waitingTime="1313.00" timeLoss="1347.37" speed="0.66" speedRelative="0.05" departed="0" arrived="0" entered="18" left="10" laneChangedFrom="0" laneChangedTo="0" flow="223.46"/>
        <edge id="-11664514#6" sampledSeconds="1280.16" traveltime="95.03" overlapTraveltime="97.75" density="89.64" overlapDensity="89.91" laneDensity="89.64" occupancy="44.63" waitingTime="1168.00" timeLoss="1212.83" speed="0.68" speedRelative="0.05" departed="0" arrived="0" entered="17" left="9" laneChangedFrom="0" laneChangedTo="0" flow="207.53"/>
        <edge id="-11664514#7" sampledSeconds="812.67" traveltime="181.89" overlapTraveltime="196.63" density="56.50" overlapDensity="56.50" laneDensity="56.50" occupancy="28.19" waitingTime="769.00" timeLoss="792.91" speed="0.34" speedRelative="0.02" departed="0" arrived="0" entered="8" left="0" laneChangedFrom="0" laneChangedTo="0" flow="69.03"/>
        <edge id="-11664514#8" sampledSeconds="294.74" traveltime="25.56" overlapTraveltime="26.52" density="23.65" overlapDensity="23.90" laneDensity="23.65" occupancy="11.79" waitingTime="216.00" timeLoss="247.55" speed="2.18" speedRelative="0.16" departed="5" arrived="0" entered="10" left="8" laneChangedFrom="0" laneChangedTo="0" flow="176.28"/>
        <edge id="-11664514#9" sampledSeconds="8.94" traveltime="0.47" overlapTraveltime="0.89" density="3.58" overlapDensity="6.87" laneDensity="3.58" occupancy="1.81" waitingTime="0.00" timeLoss="1.18" speed="11.84" speedRelative="0.85" departed="0" arrived="0" entered="10" left="10" laneChangedFrom="0" laneChangedTo="0" flow="154.51"/>
        <edge id="-11664520#0" sampledSeconds="152.41" traveltime="37.98" overlapTraveltime="29.30" density="98.08" overlapDensity="104.49" laneDensity="49.04" occupancy="25.26" waitingTime="136.00" timeLoss="149.53" speed="0.38" speedRelative="0.02" departed="5" arrived="0" entered="3" left="7" laneChangedFrom="0" laneChangedTo="0" flow="58.20"/>
        <edge id="-11664599#0" sampledSeconds="87.88" traveltime="43.64" overlapTraveltime="44.02" density="0.66" overlapDensity="0.66" laneDensity="0.66" occupancy="0.33" waitingTime="0.00" timeLoss="4.16" speed="13.08" speedRelative="0.94" departed="0" arrived="2" entered="2" left="0" laneChangedFrom="0" laneChangedTo="0" flow="30.90"/>
        <edge id="-11664599#1" sampledSeconds="101.44" traveltime="15.47" overlapTraveltime="16.03" density="2.59" overlapDensity="2.65" laneDensity="2.59" occupancy="1.31" waitingTime="0.00" timeLoss="23.24" speed="10.55" speedRelative="0.76" departed="5" arrived="0" entered="2" left="4" laneChangedFrom="0" laneChangedTo="0" flow="98.89"/>
        <edge id="-11664626#0" sampledSeconds="0.00" departed="0" arrived="0" entered="0" left="0" laneChangedFrom="0" laneChangedTo="0"/>
        <edge id="-11664626#1" sampledSeconds="167.37" traveltime="27.52" overlapTraveltime="32.57" density="133.33" overlapDensity="133.33" laneDensity="133.33" occupancy="63.54" waitingTime="159.00" timeLoss="162.68" speed="0.18" speedRelative="0.01" departed="0" arrived="0" entered="6" left="5" laneChangedFrom="0" laneChangedTo="0" flow="16.05"/>
        <edge id="-11664626#2" sampledSeconds="749.95" traveltime="78.11" overlapTraveltime="79.69" density="19.96" overlapDensity="20.14" laneDensity="19.96" occupancy="10.00" waitingTime="577.00" timeLoss="636.10" speed="2.07" speedRelative="0.15" departed="5" arrived="0" entered="5" left="6" laneChangedFrom="0" laneChangedTo="0" flow="147.04"/>
        <edge id="-11665278#1" sampledSeconds="686.91" traveltime="125.32" overlapTraveltime="135.56" density="49.74" overlapDensity="49.95" laneDensity="49.74" occupancy="32.22" waitingTime="598.00" timeLoss="671.68" speed="0.48" speedRelative="0.02" departed="0" arrived="0" entered="8" left="2" laneChangedFrom="0" laneChangedTo="0" flow="84.33"/>
        <edge id="-11665824#0" sampledSeconds="272.64" traveltime="13.59" overlapTraveltime="13.95" density="7.08" overlapDensity="7.27" laneDensity="7.08" occupancy="3.25" waitingTime="0.00" timeLoss="31.86" speed="11.87" speedRelative="0.85" departed="0" arrived="0" entered="20" left="19" laneChangedFrom="0" laneChangedTo="0" flow="301.77"/>
        <edge id="-11665824#1" sampledSeconds="640.52" traveltime="16.96" overlapTraveltime="17.91" density="15.15" overlapDensity="15.93" laneDensity="15.15" occupancy="8.09" waitingTime="8.00" timeLoss="172.27" speed="9.93" speedRelative="0.71" departed="10" arrived="0" entered="28" left="31" laneChangedFrom="0" laneChangedTo="0" flow="554.95"/>
        <edge id="-11665826#0" sampledSeconds="463.42" traveltime="112.34" overlapTraveltime="118.85" density="23.04" overlapDensity="23.04" laneDensity="23.04" occupancy="11.50" waitingTime="417.00" timeLoss="436.23" speed="0.77" speedRelative="0.06" departed="0" arrived="0" entered="5" left="0" laneChangedFrom="0" laneChangedTo="0" flow="63.73"/>
        <edge id="-11665826#1" sampledSeconds="55.23" traveltime="10.63" overlapTraveltime="11.05" density="1.85" overlapDensity="1.93" laneDensity="1.85" occupancy="0.91" waitingTime="0.00" timeLoss="6.58" speed="11.60" speedRelative="0.84" departed="0" arrived="0" entered="5" left="5" laneChangedFrom="0" laneChangedTo="0" flow="77.25"/>
        <edge id="-11665826#2" sampledSeconds="0.00" departed="0" arrived="0" entered="0" left="0" laneChangedFrom="0" laneChangedTo="0"/>
        <edge id="-11665826#3" sampledSeconds="0.00" departed="0" arrived="0" entered="0" left="0" laneChangedFrom="0" laneChangedTo="0"/>
        <edge id="-11665843#1" sampledSeconds="0.00" departed="0" arrived="0" entered="0" left="0" laneChangedFrom="0" laneChangedTo="0"/>
        <edge id="-11665843#10" sampledSeconds="244.58" traveltime="174.50" overlapTraveltime="229.45" density="66.10" overlapDensity="66.10" laneDensity="66.10" occupancy="32.94" waitingTime="239.00" timeLoss="243.08" speed="0.09" speedRelative="0.01" departed="0" arrived="0" entered="2" left="0" laneChangedFrom="0" laneChangedTo="0" flow="21.66"/>