<?xml version="1.0" encoding="UTF-8"?>

<!-- generated on 2026-02-01T00:27:47.567040+07:00 by Eclipse SUMO sumo v1_25_0+0904-59bbc76848e
<sumoConfiguration xmlns:xsi="http://www.w3.org/2001/XMLSchema-instance" xsi:noNamespaceSchemaLocation="http://sumo.dlr.de/xsd/sumoConfiguration.xsd">

    <input>
        <net-file value="maps/NJ_TurnPike/osm.net.xml.gz"/>
        <route-files value="maps/NJ_TurnPike/osm.motorcycle.trips.xml,maps/NJ_TurnPike/osm.passenger.trips.xml,maps/NJ_TurnPike/osm.truck.trips.xml"/>
        <additional-files value="maps/NJ_TurnPike/osm.poly.xml.gz,maps/NJ_TurnPike/output.add.xml"/>
    </input>

    <output>
        <tripinfo-output value="maps/NJ_TurnPike/tripinfos.xml"/>
        <statistic-output value="maps/NJ_TurnPike/stats.xml"/>
    </output>

    <processing>
        <ignore-route-errors value="true"/>
        <scale value="5.0"/>
        <tls.actuated.jam-threshold value="30"/>
    </processing>

    <routing>
        <device.rerouting.adaptation-steps value="18"/>
        <device.rerouting.adaptation-interval value="10"/>
    </routing>

    <report>
        <verbose value="true"/>
        <no-warnings value="true"/>
        <no-step-log value="true"/>
    </report>

    <emissions>
        <device.emissions.probability value="1.0"/>
    </emissions>

    <traci_server>
        <remote-port value="34559"/>
    </traci_server>

    <gui_only>
        <gui-settings-file value="maps/NJ_TurnPike/osm.view.xml"/>
        <quit-on-end value="true"/>
        <start value="true"/>
        <delay value="0"/>
    </gui_only>

</sumoConfiguration>
-->

<tripinfos xmlns:xsi="http://www.w3.org/2001/XMLSchema-instance" xsi:noNamespaceSchemaLocation="http://sumo.dlr.de/xsd/tripinfo_file.xsd">
    <tripinfo id="veh11" depart="4.00" departLane="11664626#0_0" departPos="5.10" departSpeed="13.46" departDelay="0.35" arrival="40.00" arrivalLane="11664514#10_0" arrivalPos="99.27" arrivalSpeed="12.51" duration="36.00" routeLength="419.07" waitingTime="0.00" waitingCount="0" stopTime="0.00" timeLoss="3.40" rerouteNo="1" devices="tripinfo_veh11 routing_veh11 emissions_veh11" vType="veh_passenger" speedFactor="0.97" vaporized="">
        <emissions CO_abs="426.82" CO2_abs="77649.65" HC_abs="2.85" PMx_abs="8.68" NOx_abs="27.22" fuel_abs="25173.05" electricity_abs="0.00"/>
    </tripinfo>
    <tripinfo id="veh11.1" depart="5.00" departLane="11664626#0_0" departPos="5.10" departSpeed="10.15" departDelay="1.35" arrival="41.00" arrivalLane="11664514#10_0" arrivalPos="99.27" arrivalSpeed="15.48" duration="36.00" routeLength="419.07" waitingTime="0.00" waitingCount="0" stopTime="0.00" timeLoss="11.30" rerouteNo="1" devices="tripinfo_veh11.1 routing_veh11.1 emissions_veh11.1" vType="veh_passenger" speedFactor="1.24" vaporized="">
        <emissions CO_abs="785.38" CO2_abs="109460.81" HC_abs="5.21" PMx_abs="8.93" NOx_abs="37.91" fuel_abs="35485.56" electricity_abs="0.00"/>
    </tripinfo>
    <tripinfo id="veh11.2" depart="6.00" departLane="11664626#0_0" departPos="5.10" departSpeed="5.22" departDelay="2.35" arrival="43.00" arrivalLane="11664514#10_0" arrivalPos="99.27" arrivalSpeed="14.42" duration="37.00" routeLength="419.07" waitingTime="0.00" waitingCount="0" stopTime="0.00" timeLoss="9.15" rerouteNo="1" devices="tripinfo_veh11.2 routing_veh11.2 emissions_veh11.2" vType="veh_passenger" speedFactor="1.11" vaporized="">
        <emissions CO_abs="736.46" CO2_abs="114284.50" HC_abs="4.89" PMx_abs="9.63" NOx_abs="38.72" fuel_abs="37049.34" electricity_abs="0.00"/>
    </tripinfo>
    <tripinfo id="veh11.3" depart="8.00" departLane="11664626#0_0" departPos="5.10" departSpeed="4.74" departDelay="4.35" arrival="45.00" arrivalLane="11664514#10_0" arrivalPos="99.27" arrivalSpeed="14.18" duration="37.00" routeLength="419.07" waitingTime="0.00" waitingCount="0" stopTime="0.00" timeLoss="8.36" rerouteNo="1" devices="tripinfo_veh11.3 routing_veh11.3 emissions_veh11.3" vType="veh_passenger" speedFactor="1.09" vaporized="">
        <emissions CO_abs="771.71" CO2_abs="114120.83" HC_abs="5.12" PMx_abs="9.10" NOx_abs="38.61" fuel_abs="36996.23" electricity_abs="0.00"/>
    </tripinfo>
    <tripinfo id="veh11.4" depart="10.00" departLane="11664626#0_0" departPos="5.10" departSpeed="4.01" departDelay="6.35" arrival="50.00" arrivalLane="11664514#10_0" arrivalPos="99.27" arrivalSpeed="12.90" duration="40.00" routeLength="419.07" waitingTime="0.00" waitingCount="0" stopTime="0.00" timeLoss="8.58" rerouteNo="1" devices="tripinfo_veh11.4 routing_veh11.4 emissions_veh11.4" vType="veh_passenger" speedFactor="0.99" vaporized="">
        <emissions CO_abs="563.40" CO2_abs="108654.34" HC_abs="3.75" PMx_abs="9.85" NOx_abs="36.25" fuel_abs="35224.21" electricity_abs="0.00"/>
    </tripinfo>
    <tripinfo id="motorcycle8" depart="53.00" departLane="11675395#3_0" departPos="2.30" departSpeed="0.00" departDelay="0.95" arrival="74.00" arrivalLane="11671017#2_0" arrivalPos="53.46" arrivalSpeed="12.86" duration="21.00" routeLength="192.18" waitingTime="0.00" waitingCount="0" stopTime="0.00" timeLoss="6.02" rerouteNo="1" devices="tripinfo_motorcycle8 routing_motorcycle8 emissions_motorcycle8" vType="motorcycle_motorcycle" speedFactor="1.08" vaporized="">
        <emissions CO_abs="1422.35" CO2_abs="50614.25" HC_abs="509.98" PMx_abs="9.55" NOx_abs="78.15" fuel_abs="16411.51" electricity_abs="0.00"/>
    </tripinfo>
    <tripinfo id="motorcycle1" depart="7.00" departLane="-11673815#1_0" departPos="2.30" departSpeed="0.00" departDelay="0.49" arrival="82.00" arrivalLane="-11672074#3_0" arrivalPos="112.61" arrivalSpeed="10.26" duration="75.00" routeLength="705.22" waitingTime="0.00" waitingCount="0" stopTime="0.00" timeLoss="12.20" rerouteNo="1" devices="tripinfo_motorcycle1 routing_motorcycle1 emissions_motorcycle1" vType="motorcycle_motorcycle" speedFactor="0.83" vaporized="">
        <emissions CO_abs="2354.50" CO2_abs="110184.82" HC_abs="1284.02" PMx_abs="25.89" NOx_abs="141.20" fuel_abs="35727.89" electricity_abs="0.00"/>
    </tripinfo>
    <tripinfo id="motorcycle1.1" depart="8.00" departLane="-11673815#1_0" departPos="2.30" departSpeed="0.00" departDelay="1.49" arrival="84.00" arrivalLane="-11672074#3_0" arrivalPos="112.61" arrivalSpeed="14.16" duration="76.00" routeLength="705.22" waitingTime="0.00" waitingCount="0" stopTime="0.00" timeLoss="25.27" rerouteNo="1" devices="tripinfo_motorcycle1.1 routing_motorcycle1.1 emissions_motorcycle1.1" vType="motorcycle_motorcycle" speedFactor="1.05" vaporized="">
        <emissions CO_abs="3228.70" CO2_abs="125658.27" HC_abs="1391.51" PMx_abs="27.04" NOx_abs="180.90" fuel_abs="40744.83" electricity_abs="0.00"/>
    </tripinfo>
    <tripinfo id="motorcycle1.2" depart="10.00" departLane="-11673815#1_0" departPos="2.30" departSpeed="0.00" departDelay="3.49" arrival="86.00" arrivalLane="-11672074#3_0" arrivalPos="112.61" arrivalSpeed="11.17" duration="76.00" routeLength="705.22" waitingTime="0.00" waitingCount="0" stopTime="0.00" timeLoss="16.34" rerouteNo="1" devices="tripinfo_motorcycle1.2 routing_motorcycle1.2 emissions_motorcycle1.2" vType="motorcycle_motorcycle" speedFactor="0.89" vaporized="">
        <emissions CO_abs="2975.34" CO2_abs="121736.87" HC_abs="1359.31" PMx_abs="26.66" NOx_abs="170.24" fuel_abs="39473.39" electricity_abs="0.00"/>
    </tripinfo>
    <tripinfo id="motorcycle1.3" depart="12.00" departLane="-11673815#1_0" departPos="2.30" departSpeed="0.00" departDelay="5.49" arrival="87.00" arrivalLane="-11672074#3_0" arrivalPos="112.61" arrivalSpeed="11.49" duration="75.00" routeLength="705.22" waitingTime="0.00" waitingCount="0" stopTime="0.00" timeLoss="19.34" rerouteNo="1" devices="tripinfo_motorcycle1.3 routing_motorcycle1.3 emissions_motorcycle1.3" vType="motorcycle_motorcycle" speedFactor="0.94" vaporized="">
        <emissions CO_abs="2812.38" CO2_abs="118125.09" HC_abs="1338.90" PMx_abs="26.64" NOx_abs="159.35" fuel_abs="38302.39" electricity_abs="0.00"/>
    </tripinfo>
    <tripinfo id="motorcycle1.4" depart="14.00" departLane="-11673815#1_0" departPos="2.30" departSpeed="0.00" departDelay="7.49" arrival="91.00" arrivalLane="-11672074#3_0" arrivalPos="112.61" arrivalSpeed="9.55" duration="77.00" routeLength="705.22" waitingTime="0.00" waitingCount="0" stopTime="0.00" timeLoss="15.82" rerouteNo="1" devices="tripinfo_motorcycle1.4 routing_motorcycle1.4 emissions_motorcycle1.4" vType="motorcycle_motorcycle" speedFactor="0.86" vaporized="">
        <emissions CO_abs="2747.35" CO2_abs="121199.45" HC_abs="1370.00" PMx_abs="27.37" NOx_abs="161.19" fuel_abs="39299.27" electricity_abs="0.00"/>
    </tripinfo>
    <tripinfo id="veh64" depart="22.00" departLane="-11673791#5_0" departPos="5.10" departSpeed="0.00" departDelay="0.74" arrival="91.00" arrivalLane="-11656514#0_0" arrivalPos="94.89" arrivalSpeed="13.74" duration="69.00" routeLength="928.13" waitingTime="0.00" waitingCount="0" stopTime="0.00" timeLoss="14.03" rerouteNo="1" devices="tripinfo_veh64 routing_veh64 emissions_veh64" vType="veh_passenger" speedFactor="1.08" vaporized="">
        <emissions CO_abs="2101.97" CO2_abs="259656.00" HC_abs="13.99" PMx_abs="22.20" NOx_abs="90.54" fuel_abs="84176.38" electricity_abs="0.00"/>
    </tripinfo>
    <tripinfo id="veh109" depart="37.00" departLane="-1369337806#1_1" departPos="5.10" departSpeed="31.79" departDelay="0.80" arrival="92.00" arrivalLane="11675781#5_0" arrivalPos="99.49" arrivalSpeed="14.94" duration="55.00" routeLength="822.55" waitingTime="0.00" waitingCount="0" stopTime="0.00" timeLoss="6.71" rerouteNo="1" devices="tripinfo_veh109 routing_veh109 emissions_veh109" vType="veh_passenger" speedFactor="1.14" vaporized="">
        <emissions CO_abs="1089.28" CO2_abs="137888.40" HC_abs="7.30" PMx_abs="15.31" NOx_abs="49.39" fuel_abs="44701.53" electricity_abs="0.00"/>
    </tripinfo>
    <tripinfo id="veh7" depart="3.00" departLane="11660605_0" departPos="5.10" departSpeed="0.00" departDelay="0.68" arrival="98.00" arrivalLane="-11670152#2_0" arrivalPos="56.87" arrivalSpeed="13.73" duration="95.00" routeLength="1116.64" waitingTime="0.00" waitingCount="0" stopTime="0.00" timeLoss="14.69" rerouteNo="1" devices="tripinfo_veh7 routing_veh7 emissions_veh7" vType="veh_passenger" speedFactor="1.02" vaporized="">
        <emissions CO_abs="1613.48" CO2_abs="266600.42" HC_abs="10.74" PMx_abs="24.66" NOx_abs="90.77" fuel_abs="86428.05" electricity_abs="0.00"/>
    </tripinfo>
    <tripinfo id="veh109.1" depart="38.00" departLane="-1369337806#1_1" departPos="5.10" departSpeed="27.52" departDelay="1.80" arrival="99.00" arrivalLane="11675781#5_0" arrivalPos="99.49" arrivalSpeed="13.37" duration="61.00" routeLength="822.55" waitingTime="0.00" waitingCount="0" stopTime="0.00" timeLoss="6.09" rerouteNo="1" devices="tripinfo_veh109.1 routing_veh109.1 emissions_veh109.1" vType="veh_passenger" speedFactor="0.99" vaporized="">
        <emissions CO_abs="840.98" CO2_abs="131904.74" HC_abs="5.69" PMx_abs="16.94" NOx_abs="46.88" fuel_abs="42761.96" electricity_abs="0.00"/>
    </tripinfo>
    <tripinfo id="veh109.2" depart="39.00" departLane="-1369337806#1_1" departPos="5.10" departSpeed="26.05" departDelay="2.80" arrival="101.00" arrivalLane="11675781#5_0" arrivalPos="99.49" arrivalSpeed="15.57" duration="62.00" routeLength="822.55" waitingTime="0.00" waitingCount="0" stopTime="0.00" timeLoss="15.99" rerouteNo="1" devices="tripinfo_veh109.2 routing_veh109.2 emissions_veh109.2" vType="veh_passenger" speedFactor="1.18" vaporized="">
        <emissions CO_abs="1127.97" CO2_abs="152186.17" HC_abs="7.54" PMx_abs="16.12" NOx_abs="54.23" fuel_abs="49336.64" electricity_abs="0.00"/>
    </tripinfo>
    <tripinfo id="veh7.1" depart="6.00" departLane="11660605_0" departPos="5.10" departSpeed="0.00" departDelay="3.68" arrival="103.00" arrivalLane="-11670152#2_0" arrivalPos="56.87" arrivalSpeed="12.84" duration="97.00" routeLength="1116.64" waitingTime="0.00" waitingCount="0" stopTime="0.00" timeLoss="14.53" rerouteNo="1" devices="tripinfo_veh7.1 routing_veh7.1 emissions_veh7.1" vType="veh_passenger" speedFactor="1.00" vaporized="">
        <emissions CO_abs="1632.60" CO2_abs="272950.96" HC_abs="10.86" PMx_abs="24.66" NOx_abs="92.51" fuel_abs="88486.77" electricity_abs="0.00"/>
    </tripinfo>
    <tripinfo id="veh109.3" depart="40.00" departLane="-1369337806#1_1" departPos="5.10" departSpeed="24.29" departDelay="3.80" arrival="103.00" arrivalLane="11675781#5_0" arrivalPos="99.49" arrivalSpeed="15.70" duration="63.00" routeLength="822.55" waitingTime="0.00" waitingCount="0" stopTime="0.00" timeLoss="14.61" rerouteNo="1" devices="tripinfo_veh109.3 routing_veh109.3 emissions_veh109.3" vType="veh_passenger" speedFactor="1.14" vaporized="">
        <emissions CO_abs="1429.81" CO2_abs="173851.40" HC_abs="9.52" PMx_abs="16.65" NOx_abs="62.76" fuel_abs="56360.05" electricity_abs="0.00"/>
    </tripinfo>
    <tripinfo id="veh7.2" depart="9.00" departLane="11660605_0" departPos="5.10" departSpeed="0.00" departDelay="6.68" arrival="107.00" arrivalLane="-11670152#2_0" arrivalPos="56.87" arrivalSpeed="13.48" duration="98.00" routeLength="1116.64" waitingTime="0.00" waitingCount="0" stopTime="0.00" timeLoss="13.42" rerouteNo="1" devices="tripinfo_veh7.2 routing_veh7.2 emissions_veh7.2" vType="veh_passenger" speedFactor="0.97" vaporized="">
        <emissions CO_abs="1470.82" CO2_abs="263234.85" HC_abs="9.80" PMx_abs="25.15" NOx_abs="89.29" fuel_abs="85337.08" electricity_abs="0.00"/>
    </tripinfo>
    <tripinfo id="veh7.3" depart="12.00" departLane="11660605_0" departPos="5.10" departSpeed="0.00" departDelay="9.68" arrival="113.00" arrivalLane="-11670152#2_0" arrivalPos="56.87" arrivalSpeed="12.89" duration="101.00" routeLength="1116.64" waitingTime="0.00" waitingCount="0" stopTime="0.00" timeLoss="14.99" rerouteNo="1" devices="tripinfo_veh7.3 routing_veh7.3 emissions_veh7.3" vType="veh_passenger" speedFactor="0.96" vaporized="">
        <emissions CO_abs="1493.96" CO2_abs="270532.97" HC_abs="9.94" PMx_abs="24.85" NOx_abs="91.30" fuel_abs="87702.98" electricity_abs="0.00"/>
    </tripinfo>
    <tripinfo id="veh52" depart="18.00" departLane="11655766#0_0" departPos="5.10" departSpeed="18.34" departDelay="0.73" arrival="113.00" arrivalLane="682353414_0" arrivalPos="881.16" arrivalSpeed="17.13" duration="95.00" routeLength="1495.18" waitingTime="0.00" waitingCount="0" stopTime="0.00" timeLoss="12.78" rerouteNo="1" devices="tripinfo_veh52 routing_veh52 emissions_veh52" vType="veh_passenger" speedFactor="1.32" vaporized="">
        <emissions CO_abs="2887.84" CO2_abs="314302.23" HC_abs="19.32" PMx_abs="34.88" NOx_abs="115.63" fuel_abs="101892.20" electricity_abs="0.00"/>
    </tripinfo>
    <tripinfo id="veh46" depart="16.00" departLane="-608280503#4_0" departPos="5.10" departSpeed="0.00" departDelay="0.72" arrival="114.00" arrivalLane="-262807627#0_0" arrivalPos="560.65" arrivalSpeed="20.71" duration="98.00" routeLength="989.28" waitingTime="28.00" waitingCount="2" stopTime="0.00" timeLoss="47.66" rerouteNo="1" devices="tripinfo_veh46 routing_veh46 emissions_veh46" vType="veh_passenger" speedFactor="0.98" vaporized="">
        <emissions CO_abs="2463.08" CO2_abs="321095.00" HC_abs="16.51" PMx_abs="26.94" NOx_abs="116.35" fuel_abs="104094.27" electricity_abs="0.00"/>
    </tripinfo>
    <tripinfo id="motorcycle8.1" depart="54.00" departLane="11675395#3_0" departPos="2.30" departSpeed="0.00" departDelay="1.95" arrival="115.00" arrivalLane="11671017#2_0" arrivalPos="53.46" arrivalSpeed="13.60" duration="61.00" routeLength="192.18" waitingTime="37.00" waitingCount="1" stopTime="0.00" timeLoss="47.22" rerouteNo="1" devices="tripinfo_motorcycle8.1 routing_motorcycle8.1 emissions_motorcycle8.1" vType="motorcycle_motorcycle" speedFactor="1.12" vaporized="">
        <emissions CO_abs="1613.42" CO2_abs="111494.54" HC_abs="1490.17" PMx_abs="30.00" NOx_abs="107.52" fuel_abs="36153.05" electricity_abs="0.00"/>
    </tripinfo>
    <tripinfo id="veh7.4" depart="15.00" departLane="11660605_0" departPos="5.10" departSpeed="0.00" departDelay="12.68" arrival="115.00" arrivalLane="-11670152#2_0" arrivalPos="56.87" arrivalSpeed="13.63" duration="100.00" routeLength="1116.64" waitingTime="0.00" waitingCount="0" stopTime="0.00" timeLoss="16.34" rerouteNo="1" devices="tripinfo_veh7.4 routing_veh7.4 emissions_veh7.4" vType="veh_passenger" speedFactor="0.98" vaporized="">
        <emissions CO_abs="1568.56" CO2_abs="276078.60" HC_abs="10.43" PMx_abs="24.59" NOx_abs="92.82" fuel_abs="89500.71" electricity_abs="0.00"/>
    </tripinfo>
    <tripinfo id="motorcycle8.2" depart="56.00" departLane="11675395#3_0" departPos="2.30" departSpeed="0.00" departDelay="3.95" arrival="118.00" arrivalLane="11671017#2_0" arrivalPos="53.46" arrivalSpeed="13.43" duration="62.00" routeLength="192.18" waitingTime="35.00" waitingCount="1" stopTime="0.00" timeLoss="46.38" rerouteNo="1" devices="tripinfo_motorcycle8.2 routing_motorcycle8.2 emissions_motorcycle8.2" vType="motorcycle_motorcycle" speedFactor="1.02" vaporized="">
        <emissions CO_abs="1237.42" CO2_abs="105811.58" HC_abs="1425.39" PMx_abs="29.13" NOx_abs="92.42" fuel_abs="34310.44" electricity_abs="0.00"/>
    </tripinfo>
    <tripinfo id="veh109.4" depart="41.00" departLane="-1369337806#1_1" departPos="5.10" departSpeed="22.38" departDelay="4.80" arrival="121.00" arrivalLane="11675781#5_0" arrivalPos="99.49" arrivalSpeed="11.80" duration="80.00" routeLength="822.55" waitingTime="8.00" waitingCount="1" stopTime="0.00" timeLoss="19.69" rerouteNo="1" devices="tripinfo_veh109.4 routing_veh109.4 emissions_veh109.4" vType="veh_passenger" speedFactor="0.91" vaporized="">
        <emissions CO_abs="897.67" CO2_abs="168335.10" HC_abs="6.00" PMx_abs="16.45" NOx_abs="59.37" fuel_abs="54572.02" electricity_abs="0.00"/>
    </tripinfo>
    <tripinfo id="motorcycle8.3" depart="58.00" departLane="11675395#3_0" departPos="2.30" departSpeed="0.00" departDelay="5.95" arrival="122.00" arrivalLane="11671017#2_0" arrivalPos="53.46" arrivalSpeed="12.30" duration="64.00" routeLength="192.18" waitingTime="35.00" waitingCount="1" stopTime="0.00" timeLoss="48.11" rerouteNo="1" devices="tripinfo_motorcycle8.3 routing_motorcycle8.3 emissions_motorcycle8.3" vType="motorcycle_motorcycle" speedFactor="0.99" vaporized="">
        <emissions CO_abs="1165.64" CO2_abs="109997.63" HC_abs="1484.86" PMx_abs="30.67" NOx_abs="91.63" fuel_abs="35667.88" electricity_abs="0.00"/>
    </tripinfo>
    <tripinfo id="veh136" depart="48.00" departLane="1369337799_0" departPos="5.10" departSpeed="0.00" departDelay="2.83" arrival="124.00" arrivalLane="11657372_0" arrivalPos="60.25" arrivalSpeed="14.85" duration="76.00" routeLength="861.56" waitingTime="0.00" waitingCount="0" stopTime="0.00" timeLoss="20.28" rerouteNo="1" devices="tripinfo_veh136 routing_veh136 emissions_veh136" vType="veh_passenger" speedFactor="1.10" vaporized="">
        <emissions CO_abs="1433.46" CO2_abs="226255.52" HC_abs="9.53" PMx_abs="19.80" NOx_abs="77.17" fuel_abs="73348.72" electricity_abs="0.00"/>
    </tripinfo>
    <tripinfo id="motorcycle8.4" depart="60.00" departLane="11675395#3_0" departPos="2.30" departSpeed="0.00" departDelay="7.95" arrival="126.00" arrivalLane="11671017#2_0" arrivalPos="53.46" arrivalSpeed="12.34" duration="66.00" routeLength="192.18" waitingTime="34.00" waitingCount="1" stopTime="0.00" timeLoss="48.40" rerouteNo="1" devices="tripinfo_motorcycle8.4 routing_motorcycle8.4 emissions_motorcycle8.4" vType="motorcycle_motorcycle" speedFactor="0.94" vaporized="">
        <emissions CO_abs="1067.48" CO2_abs="107128.75" HC_abs="1472.54" PMx_abs="30.17" NOx_abs="86.71" fuel_abs="34737.64" electricity_abs="0.00"/>
    </tripinfo>
    <tripinfo id="veh136.1" depart="51.00" departLane="1369337799_0" departPos="5.10" departSpeed="0.00" departDelay="5.83" arrival="129.00" arrivalLane="11657372_0" arrivalPos="60.25" arrivalSpeed="13.22" duration="78.00" routeLength="861.56" waitingTime="0.00" waitingCount="0" stopTime="0.00" timeLoss="14.93" rerouteNo="1" devices="tripinfo_veh136.1 routing_veh136.1 emissions_veh136.1" vType="veh_passenger" speedFactor="0.96" vaporized="">
        <emissions CO_abs="1233.93" CO2_abs="215870.71" HC_abs="8.21" PMx_abs="19.84" NOx_abs="73.32" fuel_abs="69982.24" electricity_abs="0.00"/>
    </tripinfo>
    <tripinfo id="veh60" depart="20.00" departLane="1445437373_0" departPos="5.10" departSpeed="0.00" departDelay="0.07" arrival="138.00" arrivalLane="-11664599#0_0" arrivalPos="570.65" arrivalSpeed="14.15" duration="118.00" routeLength="1484.79" waitingTime="7.00" waitingCount="1" stopTime="0.00" timeLoss="32.65" rerouteNo="1" devices="tripinfo_veh60 routing_veh60 emissions_veh60" vType="veh_passenger" speedFactor="1.04" vaporized="">
        <emissions CO_abs="3629.69" CO2_abs="417392.21" HC_abs="24.16" PMx_abs="37.39" NOx_abs="152.40" fuel_abs="135312.08" electricity_abs="0.00"/>
    </tripinfo>
    <tripinfo id="veh43" depart="15.00" departLane="-11673824#2_0" departPos="5.10" departSpeed="0.00" departDelay="0.72" arrival="141.00" arrivalLane="420607256_0" arrivalPos="652.89" arrivalSpeed="20.09" duration="126.00" routeLength="1672.11" waitingTime="7.00" waitingCount="2" stopTime="0.00" timeLoss="33.33" rerouteNo="1" devices="tripinfo_veh43 routing_veh43 emissions_veh43" vType="veh_passenger" speedFactor="1.06" vaporized="">
        <emissions CO_abs="3764.57" CO2_abs="435781.13" HC_abs="25.17" PMx_abs="41.59" NOx_abs="158.16" fuel_abs="141273.53" electricity_abs="0.00"/>
    </tripinfo>
    <tripinfo id="veh43.1" depart="18.00" departLane="-11673824#2_0" departPos="5.10" departSpeed="0.00" departDelay="3.72" arrival="145.00" arrivalLane="420607256_0" arrivalPos="652.89" arrivalSpeed="19.19" duration="127.00" routeLength="1672.11" waitingTime="5.00" waitingCount="1" stopTime="0.00" timeLoss="28.34" rerouteNo="1" devices="tripinfo_veh43.1 routing_veh43.1 emissions_veh43.1" vType="veh_passenger" speedFactor="0.99" vaporized="">
        <emissions CO_abs="3424.89" CO2_abs="411211.06" HC_abs="22.86" PMx_abs="38.69" NOx_abs="147.92" fuel_abs="133308.26" electricity_abs="0.00"/>
    </tripinfo>
    <tripinfo id="veh43.2" depart="21.00" departLane="-11673824#2_0" departPos="5.10" departSpeed="0.00" departDelay="6.72" arrival="151.00" arrivalLane="420607256_0" arrivalPos="652.89" arrivalSpeed="17.33" duration="130.00" routeLength="1672.11" waitingTime="2.00" waitingCount="1" stopTime="0.00" timeLoss="21.11" rerouteNo="1" devices="tripinfo_veh43.2 routing_veh43.2 emissions_veh43.2" vType="veh_passenger" speedFactor="0.90" vaporized="">
        <emissions CO_abs="2718.77" CO2_abs="365328.35" HC_abs="18.18" PMx_abs="38.36" NOx_abs="131.16" fuel_abs="118434.26" electricity_abs="0.00"/>
    </tripinfo>
    <tripinfo id="veh136.2" depart="68.00" departLane="1369337799_0" departPos="5.10" departSpeed="0.00" departDelay="22.83" arrival="151.00" arrivalLane="11657372_0" arrivalPos="60.25" arrivalSpeed="13.11" duration="83.00" routeLength="861.56" waitingTime="0.00" waitingCount="0" stopTime="0.00" timeLoss="19.32" rerouteNo="1" devices="tripinfo_veh136.2 routing_veh136.2 emissions_veh136.2" vType="veh_passenger" speedFactor="0.96" vaporized="">
        <emissions CO_abs="1308.32" CO2_abs="228776.34" HC_abs="8.69" PMx_abs="18.98" NOx_abs="76.67" fuel_abs="74165.90" electricity_abs="0.00"/>
    </tripinfo>
    <tripinfo id="veh43.3" depart="24.00" departLane="-11673824#2_0" departPos="5.10" departSpeed="0.00" departDelay="9.72" arrival="153.00" arrivalLane="420607256_0" arrivalPos="652.89" arrivalSpeed="22.00" duration="129.00" routeLength="1672.11" waitingTime="2.00" waitingCount="1" stopTime="0.00" timeLoss="46.77" rerouteNo="1" devices="tripinfo_veh43.3 routing_veh43.3 emissions_veh43.3" vType="veh_passenger" speedFactor="1.19" vaporized="">
        <emissions CO_abs="3326.16" CO2_abs="398517.55" HC_abs="22.16" PMx_abs="38.96" NOx_abs="145.49" fuel_abs="129193.39" electricity_abs="0.00"/>
    </tripinfo>
    <tripinfo id="veh136.3" depart="71.00" departLane="1369337799_0" departPos="5.10" departSpeed="0.00" departDelay="25.83" arrival="154.00" arrivalLane="11657372_0" arrivalPos="60.25" arrivalSpeed="12.53" duration="83.00" routeLength="861.56" waitingTime="0.00" waitingCount="0" stopTime="0.00" timeLoss="15.73" rerouteNo="1" devices="tripinfo_veh136.3 routing_veh136.3 emissions_veh136.3" vType="veh_passenger" speedFactor="0.91" vaporized="">
        <emissions CO_abs="1186.01" CO2_abs="217890.78" HC_abs="7.88" PMx_abs="19.26" NOx_abs="73.34" fuel_abs="70637.08" electricity_abs="0.00"/>
    </tripinfo>
    <tripinfo id="veh136.4" depart="74.00" departLane="1369337799_0" departPos="5.10" departSpeed="0.00" departDelay="28.83" arrival="156.00" arrivalLane="11657372_0" arrivalPos="60.25" arrivalSpeed="12.51" duration="82.00" routeLength="861.56" waitingTime="0.00" waitingCount="0" stopTime="0.00" timeLoss="19.07" rerouteNo="1" devices="tripinfo_veh136.4 routing_veh136.4 emissions_veh136.4" vType="veh_passenger" speedFactor="0.99" vaporized="">
        <emissions CO_abs="1201.01" CO2_abs="209982.40" HC_abs="7.97" PMx_abs="17.73" NOx_abs="70.75" fuel_abs="68073.25" electricity_abs="0.00"/>
    </tripinfo>
    <tripinfo id="veh154" depart="52.00" departLane="-1369337806#1_1" departPos="5.10" departSpeed="24.66" departDelay="0.85" arrival="160.00" arrivalLane="-11677169_0" arrivalPos="119.24" arrivalSpeed="11.03" duration="108.00" routeLength="842.28" waitingTime="29.00" waitingCount="2" stopTime="0.00" timeLoss="44.06" rerouteNo="1" devices="tripinfo_veh154 routing_veh154 emissions_veh154" vType="veh_passenger" speedFactor="0.89" vaporized="">
        <emissions CO_abs="849.95" CO2_abs="215392.22" HC_abs="5.72" PMx_abs="17.75" NOx_abs="76.65" fuel_abs="69827.70" electricity_abs="0.00"/>
    </tripinfo>
    <tripinfo id="veh161" depart="61.00" departLane="-1369337803_2" departPos="5.10" departSpeed="0.00" departDelay="7.53" arrival="160.00" arrivalLane="11673475#1_0" arrivalPos="372.85" arrivalSpeed="13.12" duration="99.00" routeLength="1079.74" waitingTime="4.00" waitingCount="1" stopTime="0.00" timeLoss="24.96" rerouteNo="1" devices="tripinfo_veh161 routing_veh161 emissions_veh161" vType="veh_passenger" speedFactor="0.96" vaporized="">
        <emissions CO_abs="1718.37" CO2_abs="266160.67" HC_abs="11.42" PMx_abs="22.92" NOx_abs="92.07" fuel_abs="86285.38" electricity_abs="0.00"/>
    </tripinfo>
    <tripinfo id="veh154.1" depart="53.00" departLane="-1369337806#1_1" departPos="5.10" departSpeed="23.11" departDelay="1.85" arrival="162.00" arrivalLane="-11677169_0" arrivalPos="119.24" arrivalSpeed="13.20" duration="109.00" routeLength="842.28" waitingTime="29.00" waitingCount="2" stopTime="0.00" timeLoss="51.85" rerouteNo="1" devices="tripinfo_veh154.1 routing_veh154.1 emissions_veh154.1" vType="veh_passenger" speedFactor="1.00" vaporized="">
        <emissions CO_abs="1327.19" CO2_abs="243088.02" HC_abs="8.83" PMx_abs="16.45" NOx_abs="86.22" fuel_abs="78805.89" electricity_abs="0.00"/>
    </tripinfo>
    <tripinfo id="veh154.2" depart="54.00" departLane="-1369337806#1_1" departPos="5.10" departSpeed="20.65" departDelay="2.85" arrival="166.00" arrivalLane="-11677169_0" arrivalPos="119.24" arrivalSpeed="10.39" duration="112.00" routeLength="842.28" waitingTime="24.00" waitingCount="1" stopTime="0.00" timeLoss="43.14" rerouteNo="1" devices="tripinfo_veh154.2 routing_veh154.2 emissions_veh154.2" vType="veh_passenger" speedFactor="0.83" vaporized="">
        <emissions CO_abs="888.07" CO2_abs="220744.18" HC_abs="5.93" PMx_abs="17.09" NOx_abs="78.11" fuel_abs="71562.62" electricity_abs="0.00"/>
    </tripinfo>
    <tripinfo id="veh161.1" depart="64.00" departLane="-1369337803_2" departPos="5.10" departSpeed="0.00" departDelay="10.53" arrival="167.00" arrivalLane="11673475#1_0" arrivalPos="372.85" arrivalSpeed="11.33" duration="103.00" routeLength="1079.74" waitingTime="1.00" waitingCount="1" stopTime="0.00" timeLoss="18.53" rerouteNo="1" devices="tripinfo_veh161.1 routing_veh161.1 emissions_veh161.1" vType="veh_passenger" speedFactor="0.85" vaporized="">
        <emissions CO_abs="1383.30" CO2_abs="247048.26" HC_abs="9.21" PMx_abs="23.13" NOx_abs="85.51" fuel_abs="80089.54" electricity_abs="0.00"/>
    </tripinfo>
    <tripinfo id="veh154.3" depart="55.00" departLane="-1369337806#1_1" departPos="5.10" departSpeed="18.86" departDelay="3.85" arrival="168.00" arrivalLane="-11677169_0" arrivalPos="119.24" arrivalSpeed="12.03" duration="113.00" routeLength="842.28" waitingTime="26.00" waitingCount="1" stopTime="0.00" timeLoss="51.44" rerouteNo="1" devices="tripinfo_veh154.3 routing_veh154.3 emissions_veh154.3" vType="veh_passenger" speedFactor="0.92" vaporized="">
        <emissions CO_abs="1265.29" CO2_abs="253588.60" HC_abs="8.40" PMx_abs="17.07" NOx_abs="88.88" fuel_abs="82210.03" electricity_abs="0.00"/>
    </tripinfo>
    <tripinfo id="veh161.2" depart="67.00" departLane="-1369337803_2" departPos="5.10" departSpeed="0.00" departDelay="13.53" arrival="168.00" arrivalLane="11673475#1_0" arrivalPos="372.85" arrivalSpeed="14.55" duration="101.00" routeLength="1079.74" waitingTime="0.00" waitingCount="0" stopTime="0.00" timeLoss="34.60" rerouteNo="1" devices="tripinfo_veh161.2 routing_veh161.2 emissions_veh161.2" vType="veh_passenger" speedFactor="1.07" vaporized="">
        <emissions CO_abs="2006.39" CO2_abs="296148.67" HC_abs="13.30" PMx_abs="23.07" NOx_abs="102.12" fuel_abs="96006.81" electricity_abs="0.00"/>
    </tripinfo>