<?xml version="1.0" encoding="UTF-8"?>

<!-- generated on 2026-02-10T20:34:07.867153+07:00 by Eclipse SUMO sumo v1_25_0+0904-59bbc76848e
<sumoConfiguration xmlns:xsi="http://www.w3.org/2001/XMLSchema-instance" xsi:noNamespaceSchemaLocation="http://sumo.dlr.de/xsd/sumoConfiguration.xsd">

    <input>
        <net-file value="maps/map_training/map3/acosta_buslanes.net.xml"/>
        <route-files value="maps/map_training/map3/acosta.rou.xml,maps/map_training/map3/acosta_busses.rou.xml"/>
        <additional-files value="maps/map_training/map3/acosta_vtypes.add.xml,maps/map_training/map3/acosta_detectors.add.xml,maps/map_training/map3/acosta_bus_stops.add.xml,maps/map_training/map3/acosta_tls.add.xml"/>
    </input>

    <output>
        <tripinfo-output value="maps/map_training/map3/tripinfos.xml"/>
    </output>

    <processing>
        <scale value="7.0"/>
    </processing>

    <report>
        <no-warnings value="true"/>
        <log value="maps/map_training/map3/sumo_log.txt"/>
        <no-step-log value="true"/>
    </report>

    <emissions>
        <device.emissions.probability value="1.0"/>
    </emissions>

    <traci_server>
        <remote-port value="40359"/>
    </traci_server>

    <gui_only>
        <gui-settings-file value="maps/map_training/map3/settings.gui.xml"/>
        <quit-on-end value="true"/>
        <start value="true"/>
        <delay value="20"/>
    </gui_only>

</sumoConfiguration>
-->

<tripinfos xmlns:xsi="http://www.w3.org/2001/XMLSchema-instance" xsi:noNamespaceSchemaLocation="http://sumo.dlr.de/xsd/tripinfo_file.xsd">
    <tripinfo id="Costa_12_0" depart="0.00" departLane="78[0]_0" departPos="0.00" departSpeed="0.00" departDelay="0.00" arrival="112.00" arrivalLane="136_0" arrivalPos="186.20" arrivalSpeed="14.78" duration="112.00" routeLength="1416.38" waitingTime="0.00" waitingCount="0" stopTime="0.00" timeLoss="15.79" rerouteNo="0" devices="tripinfo_Costa_12_0 emissions_Costa_12_0" vType="passenger3" speedFactor="1.09" vaporized="">
        <emissions CO_abs="2844.88" CO2_abs="286884.02" HC_abs="77.33" PMx_abs="28.74" NOx_abs="572.37" fuel_abs="90357.29" electricity_abs="0.00"/>
    </tripinfo>
    <tripinfo id="Audinot_7_0.1" depart="3.00" departLane="131_0" departPos="0.00" departSpeed="0.00" departDelay="3.00" arrival="123.00" arrivalLane="209_1" arrivalPos="395.59" arrivalSpeed="14.01" duration="120.00" routeLength="873.23" waitingTime="43.00" waitingCount="1" stopTime="0.00" timeLoss="60.27" rerouteNo="0" devices="tripinfo_Audinot_7_0.1 emissions_Audinot_7_0.1" vType="passenger1" speedFactor="1.08" vaporized="">
        <emissions CO_abs="2127.51" CO2_abs="214065.36" HC_abs="66.59" PMx_abs="19.76" NOx_abs="409.15" fuel_abs="67422.23" electricity_abs="0.00"/>
    </tripinfo>
    <tripinfo id="Audinot_7_0" depart="0.00" departLane="131_0" departPos="0.00" departSpeed="0.00" departDelay="0.00" arrival="124.00" arrivalLane="209_0" arrivalPos="395.59" arrivalSpeed="12.58" duration="124.00" routeLength="873.23" waitingTime="44.00" waitingCount="1" stopTime="0.00" timeLoss="57.91" rerouteNo="0" devices="tripinfo_Audinot_7_0 emissions_Audinot_7_0" vType="passenger4" speedFactor="0.98" vaporized="">
        <emissions CO_abs="1620.17" CO2_abs="203224.38" HC_abs="60.39" PMx_abs="16.60" NOx_abs="372.25" fuel_abs="64007.75" electricity_abs="0.00"/>
    </tripinfo>
    <tripinfo id="Audinot_7_0.2" depart="6.00" departLane="131_0" departPos="0.00" departSpeed="0.00" departDelay="6.00" arrival="124.00" arrivalLane="209_2" arrivalPos="395.59" arrivalSpeed="16.56" duration="118.00" routeLength="873.23" waitingTime="43.00" waitingCount="1" stopTime="0.00" timeLoss="63.90" rerouteNo="0" devices="tripinfo_Audinot_7_0.2 emissions_Audinot_7_0.2" vType="passenger2b" speedFactor="1.20" vaporized="">
        <emissions CO_abs="2611.50" CO2_abs="227948.83" HC_abs="73.87" PMx_abs="22.72" NOx_abs="449.79" fuel_abs="71794.98" electricity_abs="0.00"/>
    </tripinfo>
    <tripinfo id="Audinot_7_0.3" depart="9.00" departLane="131_0" departPos="0.00" departSpeed="0.00" departDelay="9.00" arrival="129.00" arrivalLane="209_0" arrivalPos="395.59" arrivalSpeed="13.60" duration="120.00" routeLength="873.23" waitingTime="41.00" waitingCount="1" stopTime="0.00" timeLoss="57.74" rerouteNo="0" devices="tripinfo_Audinot_7_0.3 emissions_Audinot_7_0.3" vType="passenger2a" speedFactor="1.05" vaporized="">
        <emissions CO_abs="2232.99" CO2_abs="208234.38" HC_abs="66.28" PMx_abs="20.53" NOx_abs="404.47" fuel_abs="65585.70" electricity_abs="0.00"/>
    </tripinfo>
    <tripinfo id="Audinot_7_0.4" depart="11.00" departLane="131_0" departPos="0.00" departSpeed="0.00" departDelay="11.00" arrival="130.00" arrivalLane="209_1" arrivalPos="395.59" arrivalSpeed="14.24" duration="119.00" routeLength="873.23" waitingTime="40.00" waitingCount="1" stopTime="0.00" timeLoss="59.44" rerouteNo="0" devices="tripinfo_Audinot_7_0.4 emissions_Audinot_7_0.4" vType="passenger1" speedFactor="1.08" vaporized="">
        <emissions CO_abs="2267.24" CO2_abs="211443.19" HC_abs="67.10" PMx_abs="20.34" NOx_abs="410.90" fuel_abs="66596.35" electricity_abs="0.00"/>
    </tripinfo>
    <tripinfo id="Costa_12_0.1" depart="3.00" departLane="78[0]_0" departPos="0.00" departSpeed="0.00" departDelay="3.00" arrival="130.00" arrivalLane="136_0" arrivalPos="186.20" arrivalSpeed="12.27" duration="127.00" routeLength="1416.38" waitingTime="0.00" waitingCount="0" stopTime="0.00" timeLoss="13.59" rerouteNo="0" devices="tripinfo_Costa_12_0.1 emissions_Costa_12_0.1" vType="passenger2b" speedFactor="0.92" vaporized="">
        <emissions CO_abs="1950.75" CO2_abs="254207.29" HC_abs="64.02" PMx_abs="22.93" NOx_abs="484.00" fuel_abs="80065.38" electricity_abs="0.00"/>
    </tripinfo>
    <tripinfo id="Costa_12_0.2" depart="5.00" departLane="78[0]_0" departPos="0.00" departSpeed="0.00" departDelay="5.00" arrival="132.00" arrivalLane="136_0" arrivalPos="186.20" arrivalSpeed="15.04" duration="127.00" routeLength="1416.38" waitingTime="0.00" waitingCount="0" stopTime="0.00" timeLoss="33.18" rerouteNo="0" devices="tripinfo_Costa_12_0.2 emissions_Costa_12_0.2" vType="passenger1" speedFactor="1.12" vaporized="">
        <emissions CO_abs="2469.98" CO2_abs="272527.02" HC_abs="72.71" PMx_abs="26.02" NOx_abs="531.61" fuel_abs="85835.37" electricity_abs="0.00"/>
    </tripinfo>
    <tripinfo id="Audinot_7_0.5" depart="13.00" departLane="131_0" departPos="0.00" departSpeed="0.00" departDelay="13.00" arrival="137.00" arrivalLane="209_0" arrivalPos="395.59" arrivalSpeed="12.68" duration="124.00" routeLength="873.23" waitingTime="37.00" waitingCount="1" stopTime="0.00" timeLoss="54.81" rerouteNo="0" devices="tripinfo_Audinot_7_0.5 emissions_Audinot_7_0.5" vType="passenger2b" speedFactor="0.94" vaporized="">
        <emissions CO_abs="1845.55" CO2_abs="197549.10" HC_abs="61.22" PMx_abs="17.69" NOx_abs="372.76" fuel_abs="62220.24" electricity_abs="0.00"/>
    </tripinfo>
    <tripinfo id="Audinot_7_0.6" depart="16.00" departLane="131_0" departPos="0.00" departSpeed="0.00" departDelay="16.00" arrival="137.00" arrivalLane="209_1" arrivalPos="395.59" arrivalSpeed="13.19" duration="121.00" routeLength="873.23" waitingTime="36.00" waitingCount="1" stopTime="0.00" timeLoss="57.27" rerouteNo="0" devices="tripinfo_Audinot_7_0.6 emissions_Audinot_7_0.6" vType="passenger1" speedFactor="1.02" vaporized="">
        <emissions CO_abs="1904.69" CO2_abs="206165.18" HC_abs="62.78" PMx_abs="18.39" NOx_abs="388.61" fuel_abs="64933.98" electricity_abs="0.00"/>
    </tripinfo>
    <tripinfo id="Costa_12_0.3" depart="8.00" departLane="78[0]_0" departPos="0.00" departSpeed="0.00" departDelay="8.00" arrival="138.00" arrivalLane="136_0" arrivalPos="186.20" arrivalSpeed="12.32" duration="130.00" routeLength="1413.55" waitingTime="0.00" waitingCount="0" stopTime="0.00" timeLoss="14.31" rerouteNo="0" devices="tripinfo_Costa_12_0.3 emissions_Costa_12_0.3" vType="passenger1" speedFactor="0.90" vaporized="">
        <emissions CO_abs="1871.24" CO2_abs="255124.75" HC_abs="64.10" PMx_abs="22.38" NOx_abs="480.79" fuel_abs="80354.34" electricity_abs="0.00"/>
    </tripinfo>
    <tripinfo id="Costa_12_0.4" depart="11.00" departLane="78[0]_0" departPos="0.00" departSpeed="0.00" departDelay="11.00" arrival="141.00" arrivalLane="136_0" arrivalPos="186.20" arrivalSpeed="11.89" duration="130.00" routeLength="1416.38" waitingTime="0.00" waitingCount="0" stopTime="0.00" timeLoss="17.22" rerouteNo="0" devices="tripinfo_Costa_12_0.4 emissions_Costa_12_0.4" vType="passenger5" speedFactor="0.93" vaporized="">
        <emissions CO_abs="1806.10" CO2_abs="256102.14" HC_abs="63.48" PMx_abs="21.99" NOx_abs="480.75" fuel_abs="80662.18" electricity_abs="0.00"/>
    </tripinfo>
    <tripinfo id="Costa_12_0.5" depart="14.00" departLane="78[0]_0" departPos="0.00" departSpeed="0.00" departDelay="14.00" arrival="142.00" arrivalLane="136_0" arrivalPos="186.20" arrivalSpeed="14.41" duration="128.00" routeLength="1413.55" waitingTime="0.00" waitingCount="0" stopTime="0.00" timeLoss="28.21" rerouteNo="0" devices="tripinfo_Costa_12_0.5 emissions_Costa_12_0.5" vType="passenger1" speedFactor="1.04" vaporized="">
        <emissions CO_abs="2666.04" CO2_abs="289919.26" HC_abs="77.98" PMx_abs="27.81" NOx_abs="567.21" fuel_abs="91313.25" electricity_abs="0.00"/>
    </tripinfo>
    <tripinfo id="Costa_12_0.6" depart="16.00" departLane="78[0]_0" departPos="0.00" departSpeed="0.00" departDelay="16.00" arrival="146.00" arrivalLane="136_0" arrivalPos="186.20" arrivalSpeed="12.99" duration="130.00" routeLength="1416.38" waitingTime="1.00" waitingCount="1" stopTime="0.00" timeLoss="18.02" rerouteNo="0" devices="tripinfo_Costa_12_0.6 emissions_Costa_12_0.6" vType="passenger3" speedFactor="0.94" vaporized="">
        <emissions CO_abs="2010.71" CO2_abs="251030.49" HC_abs="64.46" PMx_abs="22.98" NOx_abs="480.10" fuel_abs="79064.81" electricity_abs="0.00"/>
    </tripinfo>
    <tripinfo id="Turati_3_2" depart="69.00" departLane="195_0" departPos="0.00" departSpeed="0.00" departDelay="0.00" arrival="149.00" arrivalLane="14_0" arrivalPos="77.26" arrivalSpeed="13.68" duration="80.00" routeLength="947.57" waitingTime="0.00" waitingCount="0" stopTime="0.00" timeLoss="10.63" rerouteNo="0" devices="tripinfo_Turati_3_2 emissions_Turati_3_2" vType="ignoring2b" speedFactor="1.00" vaporized="">
        <emissions CO_abs="1592.54" CO2_abs="178132.76" HC_abs="46.81" PMx_abs="17.04" NOx_abs="347.83" fuel_abs="56104.87" electricity_abs="0.00"/>
    </tripinfo>
    <tripinfo id="Turati_3_2.1" depart="72.00" departLane="195_0" departPos="0.00" departSpeed="0.00" departDelay="3.00" arrival="152.00" arrivalLane="14_0" arrivalPos="77.26" arrivalSpeed="13.71" duration="80.00" routeLength="947.57" waitingTime="0.00" waitingCount="0" stopTime="0.00" timeLoss="10.31" rerouteNo="0" devices="tripinfo_Turati_3_2.1 emissions_Turati_3_2.1" vType="ignoring4" speedFactor="1.00" vaporized="">
        <emissions CO_abs="1608.58" CO2_abs="181781.75" HC_abs="47.66" PMx_abs="17.18" NOx_abs="354.30" fuel_abs="57254.16" electricity_abs="0.00"/>
    </tripinfo>
    <tripinfo id="Silvani_11_0.1" depart="3.00" departLane="203[0]_0" departPos="0.00" departSpeed="0.00" departDelay="3.00" arrival="157.00" arrivalLane="114_1" arrivalPos="692.70" arrivalSpeed="12.94" duration="154.00" routeLength="1114.25" waitingTime="58.00" waitingCount="1" stopTime="0.00" timeLoss="74.07" rerouteNo="0" devices="tripinfo_Silvani_11_0.1 emissions_Silvani_11_0.1" vType="passenger1" speedFactor="1.01" vaporized="">
        <emissions CO_abs="1937.40" CO2_abs="240777.08" HC_abs="71.90" PMx_abs="19.54" NOx_abs="440.71" fuel_abs="75835.39" electricity_abs="0.00"/>
    </tripinfo>
    <tripinfo id="Pepoli_3_0" depart="0.00" departLane="210_2" departPos="0.00" departSpeed="0.00" departDelay="0.00" arrival="158.00" arrivalLane="14_0" arrivalPos="77.26" arrivalSpeed="12.66" duration="158.00" routeLength="1941.55" waitingTime="0.00" waitingCount="0" stopTime="0.00" timeLoss="16.13" rerouteNo="0" devices="tripinfo_Pepoli_3_0 emissions_Pepoli_3_0" vType="ignoring3" speedFactor="1.00" vaporized="">
        <emissions CO_abs="2589.61" CO2_abs="338223.41" HC_abs="83.60" PMx_abs="30.52" NOx_abs="646.73" fuel_abs="106527.20" electricity_abs="0.00"/>
    </tripinfo>
    <tripinfo id="bus_13_0" depart="0.00" departLane="55_0" departPos="0.00" departSpeed="0.00" departDelay="0.00" arrival="158.00" arrivalLane="114_0" arrivalPos="692.70" arrivalSpeed="13.58" duration="158.00" routeLength="1058.08" waitingTime="20.00" waitingCount="1" stopTime="40.00" timeLoss="41.51" rerouteNo="0" devices="tripinfo_bus_13_0 emissions_bus_13_0" vType="bus" speedFactor="1.00" vaporized="">
        <emissions CO_abs="2080.00" CO2_abs="1888631.74" HC_abs="736.91" PMx_abs="246.23" NOx_abs="15596.36" fuel_abs="594844.52" electricity_abs="0.00"/>
    </tripinfo>
    <tripinfo id="Pepoli_8_16" depart="64.00" departLane="210_0" departPos="0.00" departSpeed="0.00" departDelay="37.00" arrival="158.00" arrivalLane="134b_0" arrivalPos="156.17" arrivalSpeed="14.13" duration="94.00" routeLength="692.71" waitingTime="32.00" waitingCount="1" stopTime="0.00" timeLoss="47.05" rerouteNo="0" devices="tripinfo_Pepoli_8_16 emissions_Pepoli_8_16" vType="passenger1" speedFactor="1.10" vaporized="">
        <emissions CO_abs="1946.87" CO2_abs="174516.31" HC_abs="56.02" PMx_abs="17.40" NOx_abs="342.63" fuel_abs="54965.82" electricity_abs="0.00"/>
    </tripinfo>
    <tripinfo id="Silvani_11_0.3" depart="9.00" departLane="203[0]_0" departPos="0.00" departSpeed="0.00" departDelay="9.00" arrival="159.00" arrivalLane="114_1" arrivalPos="692.70" arrivalSpeed="13.43" duration="150.00" routeLength="1114.25" waitingTime="54.00" waitingCount="1" stopTime="0.00" timeLoss="71.57" rerouteNo="0" devices="tripinfo_Silvani_11_0.3 emissions_Silvani_11_0.3" vType="passenger1" speedFactor="1.03" vaporized="">
        <emissions CO_abs="1850.70" CO2_abs="226061.41" HC_abs="67.42" PMx_abs="18.63" NOx_abs="414.93" fuel_abs="71200.53" electricity_abs="0.00"/>
    </tripinfo>
    <tripinfo id="Silvani_11_0.4" depart="12.00" departLane="203[0]_0" departPos="0.00" departSpeed="0.00" departDelay="12.00" arrival="159.00" arrivalLane="114_2" arrivalPos="692.70" arrivalSpeed="15.24" duration="147.00" routeLength="1114.25" waitingTime="54.00" waitingCount="1" stopTime="0.00" timeLoss="75.78" rerouteNo="0" devices="tripinfo_Silvani_11_0.4 emissions_Silvani_11_0.4" vType="passenger1" speedFactor="1.13" vaporized="">
        <emissions CO_abs="2303.52" CO2_abs="249482.75" HC_abs="76.44" PMx_abs="21.30" NOx_abs="468.82" fuel_abs="78577.34" electricity_abs="0.00"/>
    </tripinfo>
    <tripinfo id="Pepoli_8_16.1" depart="67.00" departLane="210_0" departPos="0.00" departSpeed="0.00" departDelay="40.00" arrival="160.00" arrivalLane="134b_0" arrivalPos="156.17" arrivalSpeed="14.41" duration="93.00" routeLength="692.71" waitingTime="30.00" waitingCount="1" stopTime="0.00" timeLoss="46.33" rerouteNo="0" devices="tripinfo_Pepoli_8_16.1 emissions_Pepoli_8_16.1" vType="passenger3" speedFactor="1.11" vaporized="">
        <emissions CO_abs="1963.43" CO2_abs="175419.05" HC_abs="56.33" PMx_abs="17.31" NOx_abs="344.72" fuel_abs="55250.15" electricity_abs="0.00"/>
    </tripinfo>
    <tripinfo id="Pepoli_3_0.1" depart="3.00" departLane="210_2" departPos="0.00" departSpeed="0.00" departDelay="3.00" arrival="161.00" arrivalLane="14_0" arrivalPos="77.26" arrivalSpeed="13.63" duration="158.00" routeLength="1941.55" waitingTime="0.00" waitingCount="0" stopTime="0.00" timeLoss="15.77" rerouteNo="0" devices="tripinfo_Pepoli_3_0.1 emissions_Pepoli_3_0.1" vType="ignoring2b" speedFactor="1.00" vaporized="">
        <emissions CO_abs="2640.57" CO2_abs="336890.61" HC_abs="83.69" PMx_abs="30.76" NOx_abs="646.04" fuel_abs="106107.42" electricity_abs="0.00"/>
    </tripinfo>
    <tripinfo id="Silvani_11_0.6" depart="18.00" departLane="203[0]_0" departPos="0.00" departSpeed="0.00" departDelay="18.00" arrival="161.00" arrivalLane="114_2" arrivalPos="692.70" arrivalSpeed="15.69" duration="143.00" routeLength="1114.25" waitingTime="48.00" waitingCount="1" stopTime="0.00" timeLoss="72.76" rerouteNo="0" devices="tripinfo_Silvani_11_0.6 emissions_Silvani_11_0.6" vType="passenger2a" speedFactor="1.15" vaporized="">
        <emissions CO_abs="2546.73" CO2_abs="254321.76" HC_abs="78.39" PMx_abs="23.51" NOx_abs="488.38" fuel_abs="80101.44" electricity_abs="0.00"/>
    </tripinfo>
    <tripinfo id="Togliatti_12_15" depart="21.00" departLane="85_2" departPos="0.00" departSpeed="0.00" departDelay="0.00" arrival="163.00" arrivalLane="136_0" arrivalPos="186.20" arrivalSpeed="11.01" duration="142.00" routeLength="909.95" waitingTime="48.00" waitingCount="1" stopTime="0.00" timeLoss="63.38" rerouteNo="0" devices="tripinfo_Togliatti_12_15 emissions_Togliatti_12_15" vType="passenger2b" speedFactor="0.86" vaporized="">
        <emissions CO_abs="1831.26" CO2_abs="210263.38" HC_abs="65.65" PMx_abs="17.99" NOx_abs="387.99" fuel_abs="66224.74" electricity_abs="0.00"/>
    </tripinfo>
    <tripinfo id="Togliatti_12_15.1" depart="23.00" departLane="85_2" departPos="0.00" departSpeed="0.00" departDelay="2.00" arrival="164.00" arrivalLane="136_0" arrivalPos="186.20" arrivalSpeed="12.91" duration="141.00" routeLength="909.95" waitingTime="48.00" waitingCount="1" stopTime="0.00" timeLoss="69.75" rerouteNo="0" devices="tripinfo_Togliatti_12_15.1 emissions_Togliatti_12_15.1" vType="passenger1" speedFactor="0.94" vaporized="">
        <emissions CO_abs="2224.81" CO2_abs="217083.38" HC_abs="70.72" PMx_abs="19.90" NOx_abs="412.75" fuel_abs="68372.76" electricity_abs="0.00"/>
    </tripinfo>
    <tripinfo id="Pepoli_3_0.2" depart="6.00" departLane="210_2" departPos="0.00" departSpeed="0.00" departDelay="6.00" arrival="165.00" arrivalLane="14_0" arrivalPos="77.26" arrivalSpeed="12.50" duration="159.00" routeLength="1941.55" waitingTime="0.00" waitingCount="0" stopTime="0.00" timeLoss="16.72" rerouteNo="0" devices="tripinfo_Pepoli_3_0.2 emissions_Pepoli_3_0.2" vType="ignoring2b" speedFactor="1.00" vaporized="">
        <emissions CO_abs="2797.16" CO2_abs="336970.88" HC_abs="85.64" PMx_abs="31.48" NOx_abs="652.27" fuel_abs="106132.70" electricity_abs="0.00"/>
    </tripinfo>
    <tripinfo id="bus_13_0.2" depart="8.00" departLane="55_0" departPos="0.00" departSpeed="0.00" departDelay="8.00" arrival="165.00" arrivalLane="114_0" arrivalPos="692.70" arrivalSpeed="13.17" duration="157.00" routeLength="1058.08" waitingTime="19.00" waitingCount="2" stopTime="40.00" timeLoss="40.23" rerouteNo="0" devices="tripinfo_bus_13_0.2 emissions_bus_13_0.2" vType="bus" speedFactor="1.00" vaporized="">
        <emissions CO_abs="2206.15" CO2_abs="2000795.91" HC_abs="763.60" PMx_abs="259.09" NOx_abs="16509.74" fuel_abs="630171.80" electricity_abs="0.00"/>
    </tripinfo>
    <tripinfo id="Pepoli_8_16.2" depart="70.00" departLane="210_0" departPos="0.00" departSpeed="0.00" departDelay="43.00" arrival="165.00" arrivalLane="134b_0" arrivalPos="156.17" arrivalSpeed="13.84" duration="95.00" routeLength="692.71" waitingTime="29.00" waitingCount="1" stopTime="0.00" timeLoss="44.63" rerouteNo="0" devices="tripinfo_Pepoli_8_16.2 emissions_Pepoli_8_16.2" vType="passenger2b" speedFactor="1.02" vaporized="">
        <emissions CO_abs="1592.35" CO2_abs="157005.66" HC_abs="49.89" PMx_abs="14.41" NOx_abs="300.75" fuel_abs="49450.65" electricity_abs="0.00"/>
    </tripinfo>
    <tripinfo id="Pepoli_10_4.2" depart="11.00" departLane="210_0" departPos="0.00" departSpeed="0.00" departDelay="5.00" arrival="167.00" arrivalLane="204[1][1]_1" arrivalPos="435.51" arrivalSpeed="13.43" duration="156.00" routeLength="1470.65" waitingTime="30.00" waitingCount="1" stopTime="0.00" timeLoss="53.51" rerouteNo="0" devices="tripinfo_Pepoli_10_4.2 emissions_Pepoli_10_4.2" vType="passenger4" speedFactor="1.04" vaporized="">
        <emissions CO_abs="2392.40" CO2_abs="287970.56" HC_abs="80.07" PMx_abs="24.70" NOx_abs="543.22" fuel_abs="90699.50" electricity_abs="0.00"/>
    </tripinfo>
    <tripinfo id="Togliatti_12_15.2" depart="26.00" departLane="85_2" departPos="0.00" departSpeed="0.00" departDelay="5.00" arrival="167.00" arrivalLane="136_0" arrivalPos="186.20" arrivalSpeed="11.77" duration="141.00" routeLength="909.95" waitingTime="47.00" waitingCount="1" stopTime="0.00" timeLoss="64.84" rerouteNo="0" devices="tripinfo_Togliatti_12_15.2 emissions_Togliatti_12_15.2" vType="passenger1" speedFactor="0.89" vaporized="">
        <emissions CO_abs="1861.94" CO2_abs="209454.71" HC_abs="65.48" PMx_abs="18.11" NOx_abs="388.14" fuel_abs="65970.04" electricity_abs="0.00"/>
    </tripinfo>
    <tripinfo id="Pepoli_8_16.3" depart="72.00" departLane="210_0" departPos="0.00" departSpeed="0.00" departDelay="45.00" arrival="167.00" arrivalLane="134b_0" arrivalPos="156.17" arrivalSpeed="14.64" duration="95.00" routeLength="692.71" waitingTime="27.00" waitingCount="1" stopTime="0.00" timeLoss="48.19" rerouteNo="0" devices="tripinfo_Pepoli_8_16.3 emissions_Pepoli_8_16.3" vType="passenger1" speedFactor="1.09" vaporized="">
        <emissions CO_abs="1665.21" CO2_abs="165645.70" HC_abs="51.69" PMx_abs="15.33" NOx_abs="317.96" fuel_abs="52171.93" electricity_abs="0.00"/>
    </tripinfo>
    <tripinfo id="bus_13_0.3" depart="12.00" departLane="55_0" departPos="0.00" departSpeed="0.00" departDelay="12.00" arrival="168.00" arrivalLane="114_0" arrivalPos="692.70" arrivalSpeed="13.33" duration="156.00" routeLength="1058.08" waitingTime="14.00" waitingCount="1" stopTime="40.00" timeLoss="38.95" rerouteNo="0" devices="tripinfo_bus_13_0.3 emissions_bus_13_0.3" vType="bus" speedFactor="1.00" vaporized="">
        <emissions CO_abs="2151.82" CO2_abs="1840276.10" HC_abs="754.92" PMx_abs="248.86" NOx_abs="15360.48" fuel_abs="579614.38" electricity_abs="0.00"/>
    </tripinfo>
    <tripinfo id="Silvani_7_2.6" depart="21.00" departLane="203[0]_1" departPos="0.00" departSpeed="0.00" departDelay="17.00" arrival="169.00" arrivalLane="209_1" arrivalPos="395.59" arrivalSpeed="17.13" duration="148.00" routeLength="1451.40" waitingTime="44.00" waitingCount="1" stopTime="0.00" timeLoss="64.08" rerouteNo="0" devices="tripinfo_Silvani_7_2.6 emissions_Silvani_7_2.6" vType="passenger1" speedFactor="1.25" vaporized="">
        <emissions CO_abs="2711.08" CO2_abs="285744.14" HC_abs="82.87" PMx_abs="25.76" NOx_abs="549.80" fuel_abs="89998.31" electricity_abs="0.00"/>
    </tripinfo>
    <tripinfo id="Pepoli_10_4.4" depart="17.00" departLane="210_0" departPos="0.00" departSpeed="0.00" departDelay="11.00" arrival="169.00" arrivalLane="204[1][1]_1" arrivalPos="435.51" arrivalSpeed="14.67" duration="152.00" routeLength="1470.65" waitingTime="29.00" waitingCount="1" stopTime="0.00" timeLoss="52.95" rerouteNo="0" devices="tripinfo_Pepoli_10_4.4 emissions_Pepoli_10_4.4" vType="passenger1" speedFactor="1.07" vaporized="">
        <emissions CO_abs="2086.79" CO2_abs="269352.55" HC_abs="73.27" PMx_abs="22.44" NOx_abs="503.26" fuel_abs="84835.56" electricity_abs="0.00"/>
    </tripinfo>
    <tripinfo id="Vittorio_Veneto_1_4" depart="23.00" departLane="224[0]_0" departPos="0.00" departSpeed="0.00" departDelay="5.00" arrival="169.00" arrivalLane="86_0" arrivalPos="321.19" arrivalSpeed="13.19" duration="146.00" routeLength="1143.28" waitingTime="44.00" waitingCount="1" stopTime="0.00" timeLoss="64.47" rerouteNo="0" devices="tripinfo_Vittorio_Veneto_1_4 emissions_Vittorio_Veneto_1_4" vType="passenger3" speedFactor="1.04" vaporized="">
        <emissions CO_abs="2331.62" CO2_abs="255048.43" HC_abs="76.15" PMx_abs="22.79" NOx_abs="483.10" fuel_abs="80330.30" electricity_abs="0.00"/>
    </tripinfo>
    <tripinfo id="Vittorio_Veneto_1_4.1" depart="25.00" departLane="224[0]_0" departPos="0.00" departSpeed="0.00" departDelay="7.00" arrival="169.00" arrivalLane="86_1" arrivalPos="321.19" arrivalSpeed="13.60" duration="144.00" routeLength="1143.28" waitingTime="43.00" waitingCount="2" stopTime="0.00" timeLoss="62.14" rerouteNo="0" devices="tripinfo_Vittorio_Veneto_1_4.1 emissions_Vittorio_Veneto_1_4.1" vType="passenger1" speedFactor="1.03" vaporized="">
        <emissions CO_abs="2375.71" CO2_abs="256397.09" HC_abs="76.13" PMx_abs="23.36" NOx_abs="487.41" fuel_abs="80755.08" electricity_abs="0.00"/>
    </tripinfo>
    <tripinfo id="Togliatti_12_15.3" depart="29.00" departLane="85_2" departPos="0.00" departSpeed="0.00" departDelay="8.00" arrival="170.00" arrivalLane="136_0" arrivalPos="186.20" arrivalSpeed="11.82" duration="141.00" routeLength="909.95" waitingTime="45.00" waitingCount="1" stopTime="0.00" timeLoss="63.32" rerouteNo="0" devices="tripinfo_Togliatti_12_15.3 emissions_Togliatti_12_15.3" vType="passenger3" speedFactor="0.87" vaporized="">
        <emissions CO_abs="1802.58" CO2_abs="209740.06" HC_abs="65.13" PMx_abs="17.48" NOx_abs="386.11" fuel_abs="66059.91" electricity_abs="0.00"/>
    </tripinfo>
    <tripinfo id="Silvani_11_0.5" depart="15.00" departLane="203[0]_0" departPos="0.00" departSpeed="0.00" departDelay="15.00" arrival="171.00" arrivalLane="114_0" arrivalPos="692.70" arrivalSpeed="11.13" duration="156.00" routeLength="1114.25" waitingTime="48.00" waitingCount="1" stopTime="0.00" timeLoss="65.69" rerouteNo="0" devices="tripinfo_Silvani_11_0.5 emissions_Silvani_11_0.5" vType="passenger1" speedFactor="0.89" vaporized="">
        <emissions CO_abs="1698.16" CO2_abs="225777.01" HC_abs="66.71" PMx_abs="17.89" NOx_abs="408.22" fuel_abs="71110.94" electricity_abs="0.00"/>
    </tripinfo>
    <tripinfo id="Pepoli_10_4" depart="6.00" departLane="210_0" departPos="0.00" departSpeed="0.00" departDelay="0.00" arrival="171.00" arrivalLane="204[1][1]_0" arrivalPos="435.51" arrivalSpeed="12.21" duration="165.00" routeLength="1470.65" waitingTime="30.00" waitingCount="1" stopTime="0.00" timeLoss="45.24" rerouteNo="0" devices="tripinfo_Pepoli_10_4 emissions_Pepoli_10_4" vType="passenger2b" speedFactor="0.89" vaporized="">
        <emissions CO_abs="1757.33" CO2_abs="258977.00" HC_abs="69.46" PMx_abs="20.47" NOx_abs="472.20" fuel_abs="81567.65" electricity_abs="0.00"/>
    </tripinfo>
    <tripinfo id="Togliatti_71_0" depart="0.00" departLane="85_1" departPos="0.00" departSpeed="0.00" departDelay="0.00" arrival="172.00" arrivalLane="209_0" arrivalPos="395.59" arrivalSpeed="14.66" duration="172.00" routeLength="2025.50" waitingTime="23.00" waitingCount="1" stopTime="0.00" timeLoss="40.77" rerouteNo="0" devices="tripinfo_Togliatti_71_0 emissions_Togliatti_71_0" vType="passenger2a" speedFactor="1.12" vaporized="">
        <emissions CO_abs="3096.37" CO2_abs="373339.83" HC_abs="96.74" PMx_abs="33.90" NOx_abs="716.62" fuel_abs="117587.55" electricity_abs="0.00"/>
    </tripinfo>
    <tripinfo id="Silvani_11_1.1" depart="23.00" departLane="203[0]_0" departPos="0.00" departSpeed="0.00" departDelay="21.00" arrival="172.00" arrivalLane="114_2" arrivalPos="692.70" arrivalSpeed="13.24" duration="149.00" routeLength="1114.25" waitingTime="46.00" waitingCount="1" stopTime="0.00" timeLoss="70.03" rerouteNo="0" devices="tripinfo_Silvani_11_1.1 emissions_Silvani_11_1.1" vType="passenger1" speedFactor="1.02" vaporized="">
        <emissions CO_abs="2045.40" CO2_abs="237510.15" HC_abs="70.93" PMx_abs="20.49" NOx_abs="442.06" fuel_abs="74806.43" electricity_abs="0.00"/>
    </tripinfo>
    <tripinfo id="Silvani_11_1.4" depart="32.00" departLane="203[0]_0" departPos="0.00" departSpeed="0.00" departDelay="30.00" arrival="172.00" arrivalLane="114_1" arrivalPos="692.70" arrivalSpeed="15.22" duration="140.00" routeLength="1114.25" waitingTime="44.00" waitingCount="1" stopTime="0.00" timeLoss="67.89" rerouteNo="0" devices="tripinfo_Silvani_11_1.4 emissions_Silvani_11_1.4" vType="passenger1" speedFactor="1.12" vaporized="">
        <emissions CO_abs="2630.10" CO2_abs="265201.56" HC_abs="80.53" PMx_abs="24.89" NOx_abs="511.28" fuel_abs="83528.15" electricity_abs="0.00"/>
    </tripinfo>
    <tripinfo id="Pepoli_8_16.4" depart="75.00" departLane="210_0" departPos="0.00" departSpeed="0.00" departDelay="48.00" arrival="172.00" arrivalLane="134b_0" arrivalPos="156.17" arrivalSpeed="13.03" duration="97.00" routeLength="692.71" waitingTime="25.00" waitingCount="1" stopTime="0.00" timeLoss="44.71" rerouteNo="0" devices="tripinfo_Pepoli_8_16.4 emissions_Pepoli_8_16.4" vType="passenger1" speedFactor="0.98" vaporized="">
        <emissions CO_abs="1479.66" CO2_abs="159595.73" HC_abs="48.91" PMx_abs="14.39" NOx_abs="300.89" fuel_abs="50266.42" electricity_abs="0.00"/>
    </tripinfo>
    <tripinfo id="Pepoli_10_4.3" depart="14.00" departLane="210_0" departPos="0.00" departSpeed="0.00" departDelay="8.00" arrival="173.00" arrivalLane="204[1][1]_0" arrivalPos="435.51" arrivalSpeed="12.20" duration="159.00" routeLength="1470.65" waitingTime="29.00" waitingCount="1" stopTime="0.00" timeLoss="45.79" rerouteNo="0" devices="tripinfo_Pepoli_10_4.3 emissions_Pepoli_10_4.3" vType="passenger1" speedFactor="0.94" vaporized="">
        <emissions CO_abs="1728.27" CO2_abs="259463.46" HC_abs="67.97" PMx_abs="20.66" NOx_abs="472.15" fuel_abs="81720.87" electricity_abs="0.00"/>
    </tripinfo>
    <tripinfo id="Silvani_11_1.3" depart="29.00" departLane="203[0]_0" departPos="0.00" departSpeed="0.00" departDelay="27.00" arrival="174.00" arrivalLane="114_2" arrivalPos="692.70" arrivalSpeed="14.30" duration="145.00" routeLength="1114.25" waitingTime="45.00" waitingCount="1" stopTime="0.00" timeLoss="67.97" rerouteNo="0" devices="tripinfo_Silvani_11_1.3 emissions_Silvani_11_1.3" vType="passenger1" speedFactor="1.06" vaporized="">
        <emissions CO_abs="2216.37" CO2_abs="245156.37" HC_abs="73.72" PMx_abs="21.32" NOx_abs="461.58" fuel_abs="77214.69" electricity_abs="0.00"/>
    </tripinfo>