<?xml version="1.0" encoding="UTF-8"?>

<!-- generated on 2026-03-10T21:35:06.016653+07:00 by Eclipse SUMO sumo 1.26.0
<sumoConfiguration xmlns:xsi="http://www.w3.org/2001/XMLSchema-instance" xsi:noNamespaceSchemaLocation="http://sumo.dlr.de/xsd/sumoConfiguration.xsd">

    <input>
        <net-file value="maps/map2/pasubio_buslanes.net.xml"/>
        <route-files value="maps/map2/pasubio.rou.xml"/>
        <additional-files value="maps/map2/pasubio_vtypes.add.xml,maps/map2/pasubio_bus_stops.add.xml,maps/map2/pasubio_busses.rou.xml,maps/map2/pasubio_detectors.add.xml,maps/map2/pasubio_tls.add.xml"/>
    </input>

    <output>
        <tripinfo-output value="maps/map2/tripinfos.xml"/>
    </output>

    <time>
        <step-length value="0.5"/>
    </time>

    <processing>
        <collision.action value="remove"/>
        <collision.check-junctions value="true"/>
        <scale value="1.0"/>
        <time-to-teleport value="-1"/>
    </processing>

    <report>
        <no-warnings value="true"/>
        <log value="maps/map2/sumo_log.txt"/>
        <no-step-log value="true"/>
    </report>

    <emissions>
        <device.emissions.probability value="1.0"/>
    </emissions>

    <traci_server>
        <remote-port value="43201"/>
    </traci_server>

    <gui_only>
        <quit-on-end value="true"/>
        <start value="true"/>
        <delay value="0"/>
    </gui_only>

</sumoConfiguration>
-->

<tripinfos xmlns:xsi="http://www.w3.org/2001/XMLSchema-instance" xsi:noNamespaceSchemaLocation="http://sumo.dlr.de/xsd/tripinfo_file.xsd">
    <tripinfo id="12_0" depart="0.00" departLane="3[0]_1" departPos="0.00" departSpeed="0.00" departDelay="0.00" arrival="63.00" arrivalLane=":4_3_0" arrivalPos="8.63" arrivalSpeed="0.03" duration="63.00" routeLength="180.17" waitingTime="41.50" waitingCount="2" stopTime="0.00" timeLoss="48.06" rerouteNo="0" devices="tripinfo_12_0 emissions_12_0" vType="bus" speedFactor="1.00" vaporized="collision">
        <emissions CO_abs="616.65" CO2_abs="467528.72" HC_abs="280.14" PMx_abs="74.68" NOx_abs="4155.06" fuel_abs="147253.11" electricity_abs="0.00"/>
    </tripinfo>
    <tripinfo id="Pertini_20_2" depart="4.00" departLane="63[0]_2" departPos="0.00" departSpeed="0.00" departDelay="0.00" arrival="63.00" arrivalLane=":4_9_1" arrivalPos="23.50" arrivalSpeed="9.52" duration="59.00" routeLength="706.28" waitingTime="0.50" waitingCount="1" stopTime="0.00" timeLoss="9.06" rerouteNo="0" devices="tripinfo_Pertini_20_2 emissions_Pertini_20_2" vType="passenger2b" speedFactor="1.02" vaporized="collision">
        <emissions CO_abs="1052.86" CO2_abs="128830.67" HC_abs="32.94" PMx_abs="12.05" NOx_abs="248.40" fuel_abs="40576.64" electricity_abs="0.00"/>
    </tripinfo>
    <tripinfo id="Pertini_20_0" depart="0.00" departLane="63[0]_2" departPos="0.00" departSpeed="0.00" departDelay="0.00" arrival="76.00" arrivalLane="4[1][1][1]_0" arrivalPos="170.54" arrivalSpeed="14.69" duration="76.00" routeLength="895.82" waitingTime="6.00" waitingCount="1" stopTime="0.00" timeLoss="15.86" rerouteNo="0" devices="tripinfo_Pertini_20_0 emissions_Pertini_20_0" vType="passenger1" speedFactor="1.08" vaporized="">
        <emissions CO_abs="1594.74" CO2_abs="171763.37" HC_abs="46.63" PMx_abs="16.24" NOx_abs="335.99" fuel_abs="54098.77" electricity_abs="0.00"/>
    </tripinfo>
    <tripinfo id="Pertini_20_1" depart="3.50" departLane="63[0]_1" departPos="0.00" departSpeed="0.00" departDelay="1.50" arrival="77.50" arrivalLane="4[1][1][1]_1" arrivalPos="170.54" arrivalSpeed="14.44" duration="74.00" routeLength="895.82" waitingTime="0.00" waitingCount="0" stopTime="0.00" timeLoss="12.14" rerouteNo="0" devices="tripinfo_Pertini_20_1 emissions_Pertini_20_1" vType="passenger1" speedFactor="1.05" vaporized="">
        <emissions CO_abs="1692.86" CO2_abs="177699.05" HC_abs="47.67" PMx_abs="17.44" NOx_abs="350.93" fuel_abs="55968.28" electricity_abs="0.00"/>
    </tripinfo>
    <tripinfo id="Pertini_20_7" depart="15.00" departLane="63[0]_2" departPos="0.00" departSpeed="0.00" departDelay="0.00" arrival="79.00" arrivalLane="4[1][1][1]_1" arrivalPos="170.54" arrivalSpeed="15.07" duration="64.00" routeLength="882.71" waitingTime="0.00" waitingCount="0" stopTime="0.00" timeLoss="5.72" rerouteNo="0" devices="tripinfo_Pertini_20_7 emissions_Pertini_20_7" vType="passenger1" speedFactor="1.10" vaporized="">
        <emissions CO_abs="995.25" CO2_abs="150291.91" HC_abs="35.05" PMx_abs="12.60" NOx_abs="283.34" fuel_abs="47336.12" electricity_abs="0.00"/>
    </tripinfo>
    <tripinfo id="Prati_Capraia_10_0" depart="0.00" departLane="3[0]_0" departPos="0.00" departSpeed="0.00" departDelay="0.00" arrival="80.50" arrivalLane="10_0" arrivalPos="223.30" arrivalSpeed="12.93" duration="80.50" routeLength="409.63" waitingTime="40.50" waitingCount="1" stopTime="0.00" timeLoss="48.04" rerouteNo="0" devices="tripinfo_Prati_Capraia_10_0 emissions_Prati_Capraia_10_0" vType="passenger2b" speedFactor="0.94" vaporized="">
        <emissions CO_abs="1306.22" CO2_abs="121482.40" HC_abs="42.23" PMx_abs="11.17" NOx_abs="229.15" fuel_abs="38262.20" electricity_abs="0.00"/>
    </tripinfo>
    <tripinfo id="Pertini_20_10" depart="21.00" departLane="63[0]_2" departPos="0.00" departSpeed="0.00" departDelay="0.00" arrival="84.00" arrivalLane="4[1][1][1]_1" arrivalPos="170.54" arrivalSpeed="15.38" duration="63.00" routeLength="882.71" waitingTime="0.00" waitingCount="0" stopTime="0.00" timeLoss="6.13" rerouteNo="0" devices="tripinfo_Pertini_20_10 emissions_Pertini_20_10" vType="passenger1" speedFactor="1.12" vaporized="">
        <emissions CO_abs="1175.94" CO2_abs="151440.09" HC_abs="36.87" PMx_abs="13.58" NOx_abs="291.57" fuel_abs="47697.75" electricity_abs="0.00"/>
    </tripinfo>
    <tripinfo id="Prati_Capraia_10_1" depart="4.00" departLane="3[0]_0" departPos="0.00" departSpeed="0.00" departDelay="0.00" arrival="85.50" arrivalLane="10_0" arrivalPos="223.30" arrivalSpeed="11.10" duration="81.50" routeLength="409.63" waitingTime="33.00" waitingCount="1" stopTime="0.00" timeLoss="43.73" rerouteNo="0" devices="tripinfo_Prati_Capraia_10_1 emissions_Prati_Capraia_10_1" vType="passenger5" speedFactor="0.80" vaporized="">
        <emissions CO_abs="851.74" CO2_abs="103944.77" HC_abs="34.47" PMx_abs="7.87" NOx_abs="184.07" fuel_abs="32738.53" electricity_abs="0.00"/>
    </tripinfo>
    <tripinfo id="Prati_Capraia_10_7" depart="34.00" departLane="3[0]_0" departPos="0.00" departSpeed="0.00" departDelay="0.00" arrival="87.00" arrivalLane="10_0" arrivalPos="223.30" arrivalSpeed="14.04" duration="53.00" routeLength="409.63" waitingTime="9.00" waitingCount="1" stopTime="0.00" timeLoss="23.17" rerouteNo="0" devices="tripinfo_Prati_Capraia_10_7 emissions_Prati_Capraia_10_7" vType="passenger3" speedFactor="1.02" vaporized="">
        <emissions CO_abs="1242.01" CO2_abs="108533.53" HC_abs="34.23" PMx_abs="11.29" NOx_abs="216.46" fuel_abs="34183.82" electricity_abs="0.00"/>
    </tripinfo>
    <tripinfo id="Certosa_9_0" depart="0.00" departLane="22[0]_1" departPos="0.00" departSpeed="0.00" departDelay="0.00" arrival="90.50" arrivalLane="2[1][1][1]b_2" arrivalPos="324.74" arrivalSpeed="14.64" duration="90.50" routeLength="602.57" waitingTime="39.50" waitingCount="1" stopTime="0.00" timeLoss="49.81" rerouteNo="0" devices="tripinfo_Certosa_9_0 emissions_Certosa_9_0" vType="passenger1" speedFactor="1.08" vaporized="">
        <emissions CO_abs="1625.09" CO2_abs="159611.97" HC_abs="51.30" PMx_abs="14.68" NOx_abs="304.38" fuel_abs="50271.54" electricity_abs="0.00"/>
    </tripinfo>
    <tripinfo id="Pertini_20_11" depart="23.00" departLane="63[0]_1" departPos="0.00" departSpeed="0.00" departDelay="0.00" arrival="90.50" arrivalLane="4[1][1][1]_0" arrivalPos="170.54" arrivalSpeed="14.92" duration="67.50" routeLength="895.82" waitingTime="0.00" waitingCount="0" stopTime="0.00" timeLoss="8.00" rerouteNo="0" devices="tripinfo_Pertini_20_11 emissions_Pertini_20_11" vType="passenger1" speedFactor="1.09" vaporized="">
        <emissions CO_abs="1436.33" CO2_abs="153672.03" HC_abs="40.53" PMx_abs="14.79" NOx_abs="303.33" fuel_abs="48400.71" electricity_abs="0.00"/>
    </tripinfo>
    <tripinfo id="Pertini_20_9" depart="19.00" departLane="63[0]_1" departPos="0.00" departSpeed="0.00" departDelay="0.00" arrival="91.00" arrivalLane="4[1][1][1]_0" arrivalPos="170.54" arrivalSpeed="13.28" duration="72.00" routeLength="895.82" waitingTime="0.00" waitingCount="0" stopTime="0.00" timeLoss="4.60" rerouteNo="0" devices="tripinfo_Pertini_20_9 emissions_Pertini_20_9" vType="passenger1" speedFactor="0.96" vaporized="">
        <emissions CO_abs="852.45" CO2_abs="144795.39" HC_abs="33.13" PMx_abs="11.75" NOx_abs="267.00" fuel_abs="45604.92" electricity_abs="0.00"/>
    </tripinfo>
    <tripinfo id="Pertini_20_12" depart="25.00" departLane="63[0]_2" departPos="0.00" departSpeed="0.00" departDelay="0.00" arrival="94.00" arrivalLane="4[1][1][1]_0" arrivalPos="170.54" arrivalSpeed="13.42" duration="69.00" routeLength="895.82" waitingTime="0.00" waitingCount="0" stopTime="0.00" timeLoss="4.73" rerouteNo="0" devices="tripinfo_Pertini_20_12 emissions_Pertini_20_12" vType="passenger1" speedFactor="1.01" vaporized="">
        <emissions CO_abs="904.73" CO2_abs="145121.64" HC_abs="33.32" PMx_abs="12.01" NOx_abs="270.00" fuel_abs="45707.68" electricity_abs="0.00"/>
    </tripinfo>
    <tripinfo id="Pertini_20_14" depart="30.00" departLane="63[0]_1" departPos="0.00" departSpeed="0.00" departDelay="0.00" arrival="96.00" arrivalLane="4[1][1][1]_1" arrivalPos="170.54" arrivalSpeed="14.61" duration="66.00" routeLength="895.82" waitingTime="0.00" waitingCount="0" stopTime="0.00" timeLoss="4.90" rerouteNo="0" devices="tripinfo_Pertini_20_14 emissions_Pertini_20_14" vType="passenger1" speedFactor="1.06" vaporized="">
        <emissions CO_abs="1006.37" CO2_abs="149725.27" HC_abs="34.70" PMx_abs="12.81" NOx_abs="282.08" fuel_abs="47157.65" electricity_abs="0.00"/>
    </tripinfo>
    <tripinfo id="Prati_Capraia_100_3" depart="14.00" departLane="3[0]_0" departPos="0.00" departSpeed="0.00" departDelay="0.00" arrival="96.50" arrivalLane="3[1]b_0" arrivalPos="238.77" arrivalSpeed="14.21" duration="82.50" routeLength="624.48" waitingTime="27.00" waitingCount="1" stopTime="0.00" timeLoss="40.21" rerouteNo="0" devices="tripinfo_Prati_Capraia_100_3 emissions_Prati_Capraia_100_3" vType="passenger2a" speedFactor="1.06" vaporized="">
        <emissions CO_abs="1564.14" CO2_abs="151035.45" HC_abs="47.31" PMx_abs="14.30" NOx_abs="292.23" fuel_abs="47570.27" electricity_abs="0.00"/>
    </tripinfo>
    <tripinfo id="Prati_Capraia_100_2" depart="9.00" departLane="3[0]_1" departPos="0.00" departSpeed="0.00" departDelay="0.00" arrival="99.50" arrivalLane="3[1]b_0" arrivalPos="238.77" arrivalSpeed="13.92" duration="90.50" routeLength="624.48" waitingTime="30.50" waitingCount="1" stopTime="0.00" timeLoss="46.05" rerouteNo="0" devices="tripinfo_Prati_Capraia_100_2 emissions_Prati_Capraia_100_2" vType="passenger5" speedFactor="1.02" vaporized="">
        <emissions CO_abs="1299.97" CO2_abs="144125.86" HC_abs="44.54" PMx_abs="12.17" NOx_abs="268.00" fuel_abs="45394.02" electricity_abs="0.00"/>
    </tripinfo>
    <tripinfo id="Pertini_20_15" depart="32.00" departLane="63[0]_2" departPos="0.00" departSpeed="0.00" departDelay="0.00" arrival="100.00" arrivalLane="4[1][1][1]_0" arrivalPos="170.54" arrivalSpeed="14.05" duration="68.00" routeLength="895.82" waitingTime="0.00" waitingCount="0" stopTime="0.00" timeLoss="5.38" rerouteNo="0" devices="tripinfo_Pertini_20_15 emissions_Pertini_20_15" vType="passenger1" speedFactor="1.03" vaporized="">
        <emissions CO_abs="943.02" CO2_abs="145291.39" HC_abs="33.96" PMx_abs="12.04" NOx_abs="271.95" fuel_abs="45761.15" electricity_abs="0.00"/>
    </tripinfo>
    <tripinfo id="Prati_Capraia_100_5" depart="24.00" departLane="3[0]_0" departPos="0.00" departSpeed="0.00" departDelay="0.00" arrival="102.50" arrivalLane="3[1]b_1" arrivalPos="238.77" arrivalSpeed="13.01" duration="78.50" routeLength="624.48" waitingTime="17.50" waitingCount="1" stopTime="0.00" timeLoss="31.98" rerouteNo="0" devices="tripinfo_Prati_Capraia_100_5 emissions_Prati_Capraia_100_5" vType="passenger2b" speedFactor="0.98" vaporized="">
        <emissions CO_abs="1275.71" CO2_abs="137230.94" HC_abs="40.82" PMx_abs="12.55" NOx_abs="261.65" fuel_abs="43222.39" electricity_abs="0.00"/>
    </tripinfo>
    <tripinfo id="Prati_Capraia_100_4" depart="19.00" departLane="3[0]_1" departPos="0.00" departSpeed="0.00" departDelay="0.00" arrival="103.50" arrivalLane="3[1]b_0" arrivalPos="238.77" arrivalSpeed="11.95" duration="84.50" routeLength="624.48" waitingTime="22.50" waitingCount="1" stopTime="0.00" timeLoss="34.53" rerouteNo="0" devices="tripinfo_Prati_Capraia_100_4 emissions_Prati_Capraia_100_4" vType="passenger2a" speedFactor="0.91" vaporized="">
        <emissions CO_abs="1273.46" CO2_abs="136604.41" HC_abs="41.67" PMx_abs="12.28" NOx_abs="258.12" fuel_abs="43025.05" electricity_abs="0.00"/>
    </tripinfo>
    <tripinfo id="Prati_Capraia_100_9" depart="43.00" departLane="3[0]_0" departPos="0.00" departSpeed="0.00" departDelay="0.00" arrival="104.00" arrivalLane="3[1]b_1" arrivalPos="238.77" arrivalSpeed="16.21" duration="61.00" routeLength="624.48" waitingTime="2.50" waitingCount="1" stopTime="0.00" timeLoss="23.90" rerouteNo="0" devices="tripinfo_Prati_Capraia_100_9 emissions_Prati_Capraia_100_9" vType="passenger2a" speedFactor="1.21" vaporized="">
        <emissions CO_abs="2050.26" CO2_abs="157886.01" HC_abs="49.18" PMx_abs="18.57" NOx_abs="330.30" fuel_abs="49727.92" electricity_abs="0.00"/>
    </tripinfo>
    <tripinfo id="Gandhi_80_11" depart="17.00" departLane="1[0]_0" departPos="0.00" departSpeed="0.00" departDelay="0.00" arrival="105.00" arrivalLane="21_0" arrivalPos="89.26" arrivalSpeed="13.67" duration="88.00" routeLength="512.45" waitingTime="36.50" waitingCount="1" stopTime="0.00" timeLoss="49.55" rerouteNo="0" devices="tripinfo_Gandhi_80_11 emissions_Gandhi_80_11" vType="passenger1" speedFactor="1.00" vaporized="">
        <emissions CO_abs="1300.69" CO2_abs="133069.30" HC_abs="43.86" PMx_abs="11.65" NOx_abs="248.38" fuel_abs="41911.63" electricity_abs="0.00"/>
    </tripinfo>
    <tripinfo id="Pertini_20_17" depart="36.00" departLane="63[0]_2" departPos="0.00" departSpeed="0.00" departDelay="0.00" arrival="105.50" arrivalLane="4[1][1][1]_0" arrivalPos="170.54" arrivalSpeed="13.76" duration="69.50" routeLength="882.71" waitingTime="0.00" waitingCount="0" stopTime="0.00" timeLoss="5.05" rerouteNo="0" devices="tripinfo_Pertini_20_17 emissions_Pertini_20_17" vType="passenger1" speedFactor="0.99" vaporized="">
        <emissions CO_abs="802.61" CO2_abs="147802.09" HC_abs="32.87" PMx_abs="11.76" NOx_abs="270.73" fuel_abs="46551.91" electricity_abs="0.00"/>
    </tripinfo>
    <tripinfo id="Prati_Capraia_100_10" depart="48.00" departLane="3[0]_1" departPos="0.00" departSpeed="0.00" departDelay="0.00" arrival="109.00" arrivalLane="3[1]b_0" arrivalPos="238.77" arrivalSpeed="11.57" duration="61.00" routeLength="624.48" waitingTime="0.00" waitingCount="0" stopTime="0.00" timeLoss="9.63" rerouteNo="0" devices="tripinfo_Prati_Capraia_100_10 emissions_Prati_Capraia_100_10" vType="passenger1" speedFactor="0.88" vaporized="">
        <emissions CO_abs="907.87" CO2_abs="115792.61" HC_abs="30.08" PMx_abs="10.41" NOx_abs="219.79" fuel_abs="36470.15" electricity_abs="0.00"/>
    </tripinfo>
    <tripinfo id="Prati_Capraia_100_12" depart="58.00" departLane="3[0]_1" departPos="0.00" departSpeed="0.00" departDelay="0.00" arrival="110.00" arrivalLane="3[1]b_1" arrivalPos="238.77" arrivalSpeed="13.32" duration="52.00" routeLength="624.48" waitingTime="0.00" waitingCount="0" stopTime="0.00" timeLoss="5.26" rerouteNo="0" devices="tripinfo_Prati_Capraia_100_12 emissions_Prati_Capraia_100_12" vType="passenger3" speedFactor="0.97" vaporized="">
        <emissions CO_abs="993.54" CO2_abs="117655.27" HC_abs="30.42" PMx_abs="11.01" NOx_abs="227.82" fuel_abs="37056.82" electricity_abs="0.00"/>
    </tripinfo>
    <tripinfo id="Prati_Capraia_100_13" depart="63.00" departLane="3[0]_0" departPos="0.00" departSpeed="0.00" departDelay="0.00" arrival="112.50" arrivalLane="3[1]b_1" arrivalPos="238.77" arrivalSpeed="13.74" duration="49.50" routeLength="624.48" waitingTime="0.00" waitingCount="0" stopTime="0.00" timeLoss="5.92" rerouteNo="0" devices="tripinfo_Prati_Capraia_100_13 emissions_Prati_Capraia_100_13" vType="passenger2b" speedFactor="1.03" vaporized="">
        <emissions CO_abs="998.85" CO2_abs="116408.72" HC_abs="29.90" PMx_abs="10.97" NOx_abs="226.37" fuel_abs="36664.22" electricity_abs="0.00"/>
    </tripinfo>
    <tripinfo id="Pertini_20_16" depart="34.00" departLane="63[0]_1" departPos="0.00" departSpeed="0.00" departDelay="0.00" arrival="113.00" arrivalLane="4[1][1][1]_0" arrivalPos="170.54" arrivalSpeed="11.71" duration="79.00" routeLength="895.82" waitingTime="0.00" waitingCount="0" stopTime="0.00" timeLoss="4.17" rerouteNo="0" devices="tripinfo_Pertini_20_16 emissions_Pertini_20_16" vType="passenger2a" speedFactor="0.87" vaporized="">
        <emissions CO_abs="1028.65" CO2_abs="144703.39" HC_abs="35.78" PMx_abs="12.66" NOx_abs="272.42" fuel_abs="45575.92" electricity_abs="0.00"/>
    </tripinfo>
    <tripinfo id="Saffi_30_4" depart="11.00" departLane="12_0" departPos="0.00" departSpeed="0.00" departDelay="0.00" arrival="114.00" arrivalLane="70_0" arrivalPos="59.87" arrivalSpeed="14.09" duration="103.00" routeLength="1144.73" waitingTime="5.50" waitingCount="1" stopTime="0.00" timeLoss="22.41" rerouteNo="0" devices="tripinfo_Saffi_30_4 emissions_Saffi_30_4" vType="passenger1" speedFactor="1.03" vaporized="">
        <emissions CO_abs="2100.61" CO2_abs="226887.94" HC_abs="61.72" PMx_abs="21.67" NOx_abs="443.25" fuel_abs="71460.86" electricity_abs="0.00"/>
    </tripinfo>
    <tripinfo id="Pertini_20_22" depart="47.00" departLane="63[0]_2" departPos="0.00" departSpeed="0.00" departDelay="0.00" arrival="114.50" arrivalLane="4[1][1][1]_0" arrivalPos="170.54" arrivalSpeed="13.98" duration="67.50" routeLength="882.71" waitingTime="0.00" waitingCount="0" stopTime="0.00" timeLoss="13.31" rerouteNo="0" devices="tripinfo_Pertini_20_22 emissions_Pertini_20_22" vType="passenger1" speedFactor="1.18" vaporized="">
        <emissions CO_abs="1669.96" CO2_abs="171026.42" HC_abs="45.55" PMx_abs="17.11" NOx_abs="340.95" fuel_abs="53866.68" electricity_abs="0.00"/>
    </tripinfo>
    <tripinfo id="Prati_Capraia_100_11" depart="53.00" departLane="3[0]_0" departPos="0.00" departSpeed="0.00" departDelay="0.00" arrival="115.00" arrivalLane="3[1]b_0" arrivalPos="238.77" arrivalSpeed="12.33" duration="62.00" routeLength="624.48" waitingTime="0.00" waitingCount="0" stopTime="0.00" timeLoss="12.63" rerouteNo="0" devices="tripinfo_Prati_Capraia_100_11 emissions_Prati_Capraia_100_11" vType="passenger1" speedFactor="0.92" vaporized="">
        <emissions CO_abs="1004.18" CO2_abs="119147.47" HC_abs="31.72" PMx_abs="10.91" NOx_abs="228.34" fuel_abs="37526.80" electricity_abs="0.00"/>
    </tripinfo>
    <tripinfo id="Pertini_20_21" depart="45.00" departLane="63[0]_1" departPos="0.00" departSpeed="0.00" departDelay="0.00" arrival="116.00" arrivalLane="4[1][1][1]_0" arrivalPos="170.54" arrivalSpeed="13.97" duration="71.00" routeLength="882.71" waitingTime="0.00" waitingCount="0" stopTime="0.00" timeLoss="9.61" rerouteNo="0" devices="tripinfo_Pertini_20_21 emissions_Pertini_20_21" vType="passenger4" speedFactor="1.04" vaporized="">
        <emissions CO_abs="1479.83" CO2_abs="160168.74" HC_abs="42.36" PMx_abs="15.50" NOx_abs="315.03" fuel_abs="50446.91" electricity_abs="0.00"/>
    </tripinfo>
    <tripinfo id="Prati_Capraia_100_8" depart="38.00" departLane="3[0]_1" departPos="0.00" departSpeed="0.00" departDelay="0.00" arrival="116.50" arrivalLane="3[1]b_0" arrivalPos="238.77" arrivalSpeed="14.95" duration="78.50" routeLength="624.48" waitingTime="12.50" waitingCount="2" stopTime="0.00" timeLoss="37.83" rerouteNo="0" devices="tripinfo_Prati_Capraia_100_8 emissions_Prati_Capraia_100_8" vType="passenger2a" speedFactor="1.12" vaporized="">
        <emissions CO_abs="1863.68" CO2_abs="154749.63" HC_abs="49.33" PMx_abs="16.98" NOx_abs="313.13" fuel_abs="48740.09" electricity_abs="0.00"/>
    </tripinfo>
    <tripinfo id="Prati_Capraia_100_14" depart="68.00" departLane="3[0]_1" departPos="0.00" departSpeed="0.00" departDelay="0.00" arrival="118.50" arrivalLane="3[1]b_0" arrivalPos="238.77" arrivalSpeed="13.60" duration="50.50" routeLength="624.48" waitingTime="0.00" waitingCount="0" stopTime="0.00" timeLoss="5.06" rerouteNo="0" devices="tripinfo_Prati_Capraia_100_14 emissions_Prati_Capraia_100_14" vType="passenger4" speedFactor="1.00" vaporized="">
        <emissions CO_abs="814.68" CO2_abs="108753.08" HC_abs="26.89" PMx_abs="9.51" NOx_abs="206.64" fuel_abs="34252.99" electricity_abs="0.00"/>
    </tripinfo>
    <tripinfo id="Sabotino_9_0" depart="0.00" departLane="41_0" departPos="0.00" departSpeed="0.00" departDelay="0.00" arrival="120.00" arrivalLane="2[1][1][1]b_0" arrivalPos="324.74" arrivalSpeed="13.99" duration="120.00" routeLength="1123.23" waitingTime="27.50" waitingCount="1" stopTime="0.00" timeLoss="40.13" rerouteNo="0" devices="tripinfo_Sabotino_9_0 emissions_Sabotino_9_0" vType="passenger1" speedFactor="1.02" vaporized="">
        <emissions CO_abs="1967.94" CO2_abs="232068.87" HC_abs="64.74" PMx_abs="20.81" NOx_abs="440.19" fuel_abs="73092.65" electricity_abs="0.00"/>
    </tripinfo>
    <tripinfo id="Sabotino_9_2" depart="18.00" departLane="41_0" departPos="0.00" departSpeed="0.00" departDelay="0.00" arrival="120.00" arrivalLane="2[1][1][1]b_1" arrivalPos="324.74" arrivalSpeed="13.76" duration="102.00" routeLength="1123.23" waitingTime="6.50" waitingCount="1" stopTime="0.00" timeLoss="20.78" rerouteNo="0" devices="tripinfo_Sabotino_9_2 emissions_Sabotino_9_2" vType="passenger5" speedFactor="1.00" vaporized="">
        <emissions CO_abs="1367.19" CO2_abs="192937.95" HC_abs="48.73" PMx_abs="16.21" NOx_abs="360.74" fuel_abs="60767.94" electricity_abs="0.00"/>
    </tripinfo>
    <tripinfo id="Sabotino_9_3" depart="27.00" departLane="41_0" departPos="0.00" departSpeed="0.00" departDelay="0.00" arrival="121.50" arrivalLane="2[1][1][1]b_0" arrivalPos="324.74" arrivalSpeed="14.60" duration="94.50" routeLength="1123.23" waitingTime="0.00" waitingCount="0" stopTime="0.00" timeLoss="17.64" rerouteNo="0" devices="tripinfo_Sabotino_9_3 emissions_Sabotino_9_3" vType="passenger1" speedFactor="1.06" vaporized="">
        <emissions CO_abs="1942.20" CO2_abs="215874.80" HC_abs="56.85" PMx_abs="20.56" NOx_abs="421.88" fuel_abs="67992.15" electricity_abs="0.00"/>
    </tripinfo>
    <tripinfo id="Pertini_20_19" depart="40.00" departLane="63[0]_2" departPos="0.00" departSpeed="0.00" departDelay="0.00" arrival="122.00" arrivalLane="4[1][1][1]_0" arrivalPos="170.54" arrivalSpeed="11.42" duration="82.00" routeLength="895.82" waitingTime="0.00" waitingCount="0" stopTime="0.00" timeLoss="4.78" rerouteNo="0" devices="tripinfo_Pertini_20_19 emissions_Pertini_20_19" vType="passenger3" speedFactor="0.84" vaporized="">
        <emissions CO_abs="750.46" CO2_abs="143366.07" HC_abs="33.22" PMx_abs="11.03" NOx_abs="258.90" fuel_abs="45154.72" electricity_abs="0.00"/>
    </tripinfo>
    <tripinfo id="Gandhi_80_45" depart="70.00" departLane="1[0]_0" departPos="0.00" departSpeed="0.00" departDelay="0.00" arrival="122.00" arrivalLane="21_0" arrivalPos="89.26" arrivalSpeed="12.53" duration="52.00" routeLength="512.45" waitingTime="0.00" waitingCount="0" stopTime="0.00" timeLoss="10.94" rerouteNo="0" devices="tripinfo_Gandhi_80_45 emissions_Gandhi_80_45" vType="passenger2a" speedFactor="0.92" vaporized="">
        <emissions CO_abs="1105.41" CO2_abs="110114.45" HC_abs="31.19" PMx_abs="11.23" NOx_abs="218.23" fuel_abs="34681.75" electricity_abs="0.00"/>
    </tripinfo>
    <tripinfo id="Sabotino_9_1" depart="9.00" departLane="41_0" departPos="0.00" departSpeed="0.00" departDelay="0.00" arrival="122.50" arrivalLane="2[1][1][1]b_0" arrivalPos="324.74" arrivalSpeed="12.59" duration="113.50" routeLength="1123.23" waitingTime="17.50" waitingCount="1" stopTime="0.00" timeLoss="27.28" rerouteNo="0" devices="tripinfo_Sabotino_9_1 emissions_Sabotino_9_1" vType="passenger2a" speedFactor="0.94" vaporized="">
        <emissions CO_abs="1569.80" CO2_abs="206106.96" HC_abs="54.66" PMx_abs="17.85" NOx_abs="385.63" fuel_abs="64915.66" electricity_abs="0.00"/>
    </tripinfo>
    <tripinfo id="Pertini_20_25" depart="53.00" departLane="63[0]_1" departPos="0.00" departSpeed="0.00" departDelay="0.00" arrival="123.50" arrivalLane="4[1][1][1]_0" arrivalPos="170.54" arrivalSpeed="13.78" duration="70.50" routeLength="895.82" waitingTime="0.00" waitingCount="0" stopTime="0.00" timeLoss="6.79" rerouteNo="0" devices="tripinfo_Pertini_20_25 emissions_Pertini_20_25" vType="passenger1" speedFactor="1.01" vaporized="">
        <emissions CO_abs="1029.52" CO2_abs="152437.73" HC_abs="36.38" PMx_abs="12.81" NOx_abs="286.33" fuel_abs="48011.95" electricity_abs="0.00"/>
    </tripinfo>
    <tripinfo id="Sabotino_9_4" depart="36.00" departLane="41_0" departPos="0.00" departSpeed="0.00" departDelay="0.00" arrival="124.50" arrivalLane="2[1][1][1]b_0" arrivalPos="324.74" arrivalSpeed="12.98" duration="88.50" routeLength="1123.23" waitingTime="0.00" waitingCount="0" stopTime="0.00" timeLoss="5.44" rerouteNo="0" devices="tripinfo_Sabotino_9_4 emissions_Sabotino_9_4" vType="passenger4" speedFactor="0.98" vaporized="">
        <emissions CO_abs="969.95" CO2_abs="179519.18" HC_abs="39.84" PMx_abs="14.19" NOx_abs="328.30" fuel_abs="56541.57" electricity_abs="0.00"/>
    </tripinfo>
    <tripinfo id="Pertini_20_26" depart="55.00" departLane="63[0]_2" departPos="0.00" departSpeed="0.00" departDelay="0.00" arrival="125.50" arrivalLane="4[1][1][1]_0" arrivalPos="170.54" arrivalSpeed="13.30" duration="70.50" routeLength="882.71" waitingTime="0.00" waitingCount="0" stopTime="0.00" timeLoss="4.67" rerouteNo="0" devices="tripinfo_Pertini_20_26 emissions_Pertini_20_26" vType="passenger5" speedFactor="0.97" vaporized="">
        <emissions CO_abs="803.22" CO2_abs="143791.88" HC_abs="32.43" PMx_abs="11.53" NOx_abs="263.92" fuel_abs="45288.85" electricity_abs="0.00"/>
    </tripinfo>
    <tripinfo id="Prati_Capraia_10_19" depart="92.00" departLane="3[0]_0" departPos="0.00" departSpeed="0.00" departDelay="0.00" arrival="126.50" arrivalLane="10_0" arrivalPos="223.30" arrivalSpeed="14.25" duration="34.50" routeLength="409.63" waitingTime="0.00" waitingCount="0" stopTime="0.00" timeLoss="5.19" rerouteNo="0" devices="tripinfo_Prati_Capraia_10_19 emissions_Prati_Capraia_10_19" vType="passenger3" speedFactor="1.05" vaporized="">
        <emissions CO_abs="962.45" CO2_abs="91162.83" HC_abs="25.57" PMx_abs="9.53" NOx_abs="183.53" fuel_abs="28712.74" electricity_abs="0.00"/>
    </tripinfo>
    <tripinfo id="Pertini_20_27" depart="58.00" departLane="63[0]_1" departPos="0.00" departSpeed="0.00" departDelay="0.00" arrival="127.00" arrivalLane="4[1][1][1]_0" arrivalPos="170.54" arrivalSpeed="16.08" duration="69.00" routeLength="895.82" waitingTime="0.00" waitingCount="0" stopTime="0.00" timeLoss="14.39" rerouteNo="0" devices="tripinfo_Pertini_20_27 emissions_Pertini_20_27" vType="passenger1" speedFactor="1.18" vaporized="">
        <emissions CO_abs="1929.30" CO2_abs="179793.41" HC_abs="49.89" PMx_abs="18.61" NOx_abs="363.65" fuel_abs="56627.93" electricity_abs="0.00"/>
    </tripinfo>
    <tripinfo id="Prati_Capraia_100_16" depart="77.00" departLane="3[0]_0" departPos="0.00" departSpeed="0.00" departDelay="0.00" arrival="129.50" arrivalLane="3[1]b_0" arrivalPos="238.77" arrivalSpeed="12.68" duration="52.50" routeLength="624.48" waitingTime="0.00" waitingCount="0" stopTime="0.00" timeLoss="3.94" rerouteNo="0" devices="tripinfo_Prati_Capraia_100_16 emissions_Prati_Capraia_100_16" vType="passenger1" speedFactor="0.93" vaporized="">
        <emissions CO_abs="655.52" CO2_abs="105871.07" HC_abs="24.91" PMx_abs="8.80" NOx_abs="196.17" fuel_abs="33345.26" electricity_abs="0.00"/>
    </tripinfo>
    <tripinfo id="Prati_Capraia_100_18" depart="87.00" departLane="3[0]_0" departPos="0.00" departSpeed="0.00" departDelay="0.00" arrival="129.50" arrivalLane="3[1]b_1" arrivalPos="238.77" arrivalSpeed="16.45" duration="42.50" routeLength="624.48" waitingTime="0.00" waitingCount="0" stopTime="0.00" timeLoss="4.82" rerouteNo="0" devices="tripinfo_Prati_Capraia_100_18 emissions_Prati_Capraia_100_18" vType="passenger1" speedFactor="1.21" vaporized="">
        <emissions CO_abs="1128.55" CO2_abs="121810.13" HC_abs="31.27" PMx_abs="11.82" NOx_abs="241.45" fuel_abs="38365.47" electricity_abs="0.00"/>
    </tripinfo>
    <tripinfo id="Pertini_20_18" depart="38.00" departLane="63[0]_1" departPos="0.00" departSpeed="0.00" departDelay="0.00" arrival="132.50" arrivalLane="4[1][1][1]_0" arrivalPos="170.54" arrivalSpeed="12.84" duration="94.50" routeLength="895.82" waitingTime="12.50" waitingCount="1" stopTime="0.00" timeLoss="24.64" rerouteNo="0" devices="tripinfo_Pertini_20_18 emissions_Pertini_20_18" vType="passenger3" speedFactor="0.93" vaporized="">
        <emissions CO_abs="1521.79" CO2_abs="173274.07" HC_abs="48.21" PMx_abs="16.04" NOx_abs="331.65" fuel_abs="54574.57" electricity_abs="0.00"/>
    </tripinfo>
    <tripinfo id="Prati_Capraia_100_17" depart="82.00" departLane="3[0]_1" departPos="0.00" departSpeed="0.00" departDelay="0.00" arrival="134.50" arrivalLane="3[1]b_0" arrivalPos="238.77" arrivalSpeed="12.88" duration="52.50" routeLength="624.48" waitingTime="0.00" waitingCount="0" stopTime="0.00" timeLoss="4.48" rerouteNo="0" devices="tripinfo_Prati_Capraia_100_17 emissions_Prati_Capraia_100_17" vType="passenger1" speedFactor="0.94" vaporized="">
        <emissions CO_abs="732.29" CO2_abs="110051.78" HC_abs="26.44" PMx_abs="9.24" NOx_abs="205.29" fuel_abs="34662.02" electricity_abs="0.00"/>